       N       E                     dE             d eps       ncg     rms          rms(c)
DAV:   1     0.571628611787E+04    0.57163E+04   -0.31064E+05  5280   0.147E+03
DAV:   2     0.446191397436E+02   -0.56717E+04   -0.54004E+04  5280   0.345E+02
DAV:   3    -0.485598117679E+03   -0.53022E+03   -0.47928E+03  6528   0.143E+02
DAV:   4    -0.503473813076E+03   -0.17876E+02   -0.17726E+02  5760   0.273E+01
DAV:   5    -0.503794593211E+03   -0.32078E+00   -0.32075E+00  6336   0.274E+00    0.856E+01
DAV:   6    -0.549616306276E+03   -0.45822E+02   -0.95421E+02  6240   0.142E+02    0.123E+02
DAV:   7    -0.594165290396E+03   -0.44549E+02   -0.73011E+02  6144   0.166E+02    0.138E+02
DAV:   8    -0.842551518405E+03   -0.24839E+03   -0.75805E+02  7008   0.140E+02    0.226E+02
DAV:   9    -0.476719074386E+03    0.36583E+03   -0.63866E+02  7104   0.604E+01    0.890E+01
DAV:  10    -0.453950604637E+03    0.22768E+02   -0.41772E+02  6672   0.739E+01    0.668E+01
DAV:  11    -0.472720435133E+03   -0.18770E+02   -0.35786E+02  6432   0.853E+01    0.102E+02
DAV:  12    -0.480477836040E+03   -0.77574E+01   -0.26336E+02  6000   0.604E+01    0.124E+02
DAV:  13    -0.451697490326E+03    0.28780E+02   -0.20192E+02  6000   0.472E+01    0.963E+01
DAV:  14    -0.441696497092E+03    0.10001E+02   -0.18172E+02  5712   0.390E+01    0.789E+01
DAV:  15    -0.432209931143E+03    0.94866E+01   -0.73692E+01  5760   0.349E+01    0.581E+01
DAV:  16    -0.434951105495E+03   -0.27412E+01   -0.92825E+01  6000   0.380E+01    0.606E+01
DAV:  17    -0.128877517190E+04   -0.85382E+03   -0.54170E+02  7344   0.245E+01    0.611E+01
DAV:  18    -0.523652324224E+03    0.76512E+03   -0.16879E+01  7344   0.356E+01    0.479E+01
DAV:  19    -0.513386917617E+03    0.10265E+02    0.97527E+01  7344   0.342E+01    0.535E+01
DAV:  20    -0.492689997118E+03    0.20697E+02    0.10647E+02  6624   0.310E+01    0.513E+01
DAV:  21    -0.489754501296E+03    0.29355E+01    0.85916E+01  6912   0.256E+01    0.409E+01
DAV:  22    -0.462647044870E+03    0.27107E+02    0.56108E+01  6336   0.177E+01    0.316E+01
DAV:  23    -0.477982390470E+03   -0.15335E+02    0.33593E+01  6432   0.140E+01    0.259E+01
DAV:  24    -0.544158274728E+03   -0.66176E+02   -0.96631E+00  6576   0.125E+01    0.233E+01
DAV:  25    -0.474209986925E+03    0.69948E+02   -0.60680E+01  7248   0.111E+01    0.184E+01
DAV:  26    -0.466786893282E+03    0.74231E+01    0.77779E+01  6960   0.118E+01    0.185E+01
DAV:  27    -0.470714874652E+03   -0.39280E+01    0.73247E+00  6288   0.917E+00    0.214E+01
DAV:  28    -0.469320698286E+03    0.13942E+01   -0.22968E+01  6048   0.772E+00    0.173E+01
DAV:  29    -0.694716005469E+03   -0.22540E+03   -0.45759E+01  6528   0.900E+00    0.278E+01
DAV:  30    -0.495913288296E+03    0.19880E+03   -0.10158E+02  6528   0.141E+01    0.228E+01
DAV:  31    -0.534054980023E+03   -0.38142E+02   -0.20478E+01  6528   0.123E+01    0.243E+01
DAV:  32    -0.547552093526E+03   -0.13497E+02   -0.47672E+01  6336   0.105E+01    0.206E+01
DAV:  33    -0.564904426784E+03   -0.17352E+02   -0.96925E+01  6528   0.101E+01    0.242E+01
DAV:  34    -0.580266814434E+03   -0.15362E+02   -0.70884E+01  6432   0.127E+01    0.193E+01
DAV:  35    -0.577250187952E+03    0.30166E+01   -0.11078E+02  7008   0.122E+01    0.206E+01
DAV:  36    -0.576807500583E+03    0.44269E+00   -0.53463E+01  7296   0.129E+01    0.177E+01
DAV:  37    -0.634454449125E+03   -0.57647E+02   -0.78265E+01  6384   0.117E+01    0.187E+01
DAV:  38    -0.613913428361E+03    0.20541E+02   -0.10455E+02  7056   0.119E+01    0.164E+01
DAV:  39    -0.613464512082E+03    0.44892E+00   -0.76954E+01  7392   0.123E+01    0.180E+01
DAV:  40    -0.607325357748E+03    0.61392E+01   -0.94387E+01  7248   0.127E+01    0.166E+01
DAV:  41    -0.596513972625E+03    0.10811E+02   -0.80683E+01  6624   0.127E+01    0.164E+01
DAV:  42    -0.613363709585E+03   -0.16850E+02   -0.69491E+01  6240   0.124E+01    0.168E+01
DAV:  43    -0.639296061611E+03   -0.25932E+02   -0.10776E+02  6768   0.115E+01    0.170E+01
DAV:  44    -0.774404037134E+03   -0.13511E+03   -0.53287E+02  7392   0.125E+01    0.170E+01
DAV:  45    -0.666757679846E+03    0.10765E+03   -0.31615E+02  6384   0.164E+01    0.176E+01
DAV:  46    -0.259215679422E+04   -0.19254E+04   -0.12848E+04  7440   0.148E+01    0.251E+01
DAV:  47    -0.108617576563E+05   -0.82696E+04   -0.10004E+05  7488   0.239E+01    0.883E+01
DAV:  48    -0.112847865185E+04    0.97333E+04   -0.77473E+03  6816   0.622E+01    0.254E+01
DAV:  49    -0.686459418261E+03    0.44202E+03   -0.10739E+03  6912   0.296E+01    0.255E+01
DAV:  50    -0.249810654378E+04   -0.18116E+04   -0.74674E+03  7536   0.262E+01    0.453E+01
DAV:  51    -0.693657740324E+04   -0.44385E+04   -0.61211E+04  7584   0.420E+01    0.913E+01
DAV:  52    -0.496453038379E+04    0.19720E+04   -0.25736E+04  6000   0.600E+01    0.632E+01
DAV:  53    -0.521576208866E+06   -0.51661E+06   -0.52135E+06  5760   0.503E+01    0.105E+02
DAV:  54    -0.509671572103E+03    0.52107E+06   -0.36019E+03  6480   0.485E+01    0.187E+01
DAV:  55    -0.519543444719E+03   -0.98719E+01   -0.22253E+02  6816   0.266E+01    0.266E+01
DAV:  56    -0.538396578036E+03   -0.18853E+02   -0.90847E+02  7920   0.255E+01    0.272E+01
DAV:  57    -0.511924719865E+03    0.26472E+02   -0.98217E+02  6528   0.282E+01    0.213E+01
DAV:  58    -0.527699679716E+03   -0.15775E+02   -0.12828E+03  7152   0.210E+01    0.202E+01
DAV:  59    -0.581211944298E+03   -0.53512E+02   -0.19554E+03  7104   0.230E+01    0.219E+01
DAV:  60    -0.169362056580E+04   -0.11124E+04   -0.13159E+04  6960   0.220E+01
   1 F= -.16936179E+04 E0= -.16934953E+04  d E =-.169362E+04
       N       E                     dE             d eps       ncg     rms          rms(c)
DAV:   1    -0.359282325045E+03    0.22193E+03   -0.11866E+04  5376   0.215E+02    0.463E+01
DAV:   2    -0.688315094505E+03   -0.32903E+03   -0.12628E+03  7200   0.211E+02    0.180E+02
DAV:   3    -0.578237781694E+03    0.11008E+03   -0.71842E+02  6912   0.141E+02    0.149E+02
DAV:   4    -0.463719677442E+03    0.11452E+03   -0.45671E+02  6672   0.854E+01    0.943E+01
DAV:   5    -0.451413528656E+03    0.12306E+02   -0.41783E+02  6480   0.712E+01    0.766E+01
DAV:   6    -0.456550976408E+03   -0.51374E+01   -0.22581E+02  6000   0.697E+01    0.881E+01
DAV:   7    -0.430710395757E+03    0.25841E+02   -0.15020E+02  6192   0.547E+01    0.738E+01
DAV:   8    -0.420317281515E+03    0.10393E+02   -0.15164E+02  6048   0.308E+01    0.471E+01
DAV:   9    -0.417060406297E+03    0.32569E+01   -0.65637E+01  6384   0.272E+01    0.353E+01
DAV:  10    -0.417070468111E+03   -0.10062E-01   -0.34146E+01  6480   0.246E+01    0.375E+01
DAV:  11    -0.414442628000E+03    0.26278E+01   -0.34052E+01  6240   0.198E+01    0.272E+01
DAV:  12    -0.413171487619E+03    0.12711E+01   -0.13965E+01  6480   0.140E+01    0.221E+01
DAV:  13    -0.412702961923E+03    0.46853E+00   -0.93177E+00  6240   0.107E+01    0.190E+01
DAV:  14    -0.412929634237E+03   -0.22667E+00   -0.10143E+01  5952   0.111E+01    0.222E+01
DAV:  15    -0.412466914373E+03    0.46272E+00   -0.13547E+01  6000   0.109E+01    0.192E+01
DAV:  16    -0.412172266980E+03    0.29465E+00   -0.44504E+00  6480   0.864E+00    0.181E+01
DAV:  17    -0.412184547257E+03   -0.12280E-01   -0.47072E+00  6288   0.826E+00    0.194E+01
DAV:  18    -0.411798438661E+03    0.38611E+00   -0.66534E+00  6864   0.913E+00    0.156E+01
DAV:  19    -0.411616735364E+03    0.18170E+00   -0.46774E+00  7200   0.837E+00    0.144E+01
DAV:  20    -0.411867756171E+03   -0.25102E+00   -0.50574E+00  6096   0.864E+00    0.166E+01
DAV:  21    -0.411386519833E+03    0.48124E+00   -0.40876E+00  6048   0.753E+00    0.111E+01
DAV:  22    -0.411229355302E+03    0.15716E+00   -0.24370E+00  5952   0.623E+00    0.902E+00
DAV:  23    -0.411437134842E+03   -0.20778E+00   -0.29617E+00  6048   0.601E+00    0.119E+01
DAV:  24    -0.411218815072E+03    0.21832E+00   -0.20327E+00  6048   0.541E+00    0.807E+00
DAV:  25    -0.411092530822E+03    0.12628E+00   -0.92938E-01  6048   0.386E+00    0.531E+00
DAV:  26    -0.411195497530E+03   -0.10297E+00   -0.89639E-01  6048   0.409E+00    0.764E+00
DAV:  27    -0.411118567399E+03    0.76930E-01   -0.10301E+00  6000   0.382E+00    0.570E+00
DAV:  28    -0.411030023633E+03    0.88544E-01   -0.35196E-01  5904   0.225E+00    0.245E+00
DAV:  29    -0.411026702074E+03    0.33216E-02   -0.95097E-02  7008   0.114E+00    0.200E+00
DAV:  30    -0.411045838743E+03   -0.19137E-01   -0.16006E-01  6528   0.141E+00    0.333E+00
DAV:  31    -0.411030531084E+03    0.15308E-01   -0.14552E-01  6144   0.148E+00    0.201E+00
DAV:  32    -0.411022388607E+03    0.81425E-02   -0.76940E-02  6144   0.118E+00    0.132E+00
DAV:  33    -0.411025694777E+03   -0.33062E-02   -0.39440E-02  7296   0.725E-01    0.163E+00
DAV:  34    -0.411022607621E+03    0.30872E-02   -0.26022E-02  5664   0.607E-01    0.142E+00
DAV:  35    -0.411018721487E+03    0.38861E-02   -0.16812E-02  6096   0.495E-01    0.703E-01
DAV:  36    -0.411019152590E+03   -0.43110E-03   -0.72323E-03  6336   0.351E-01    0.649E-01
DAV:  37    -0.411020129213E+03   -0.97662E-03   -0.89240E-03  6144   0.391E-01    0.789E-01
DAV:  38    -0.411018808619E+03    0.13206E-02   -0.79852E-03  5712   0.390E-01    0.499E-01
DAV:  39    -0.411018789683E+03    0.18936E-04   -0.30002E-03  6288   0.242E-01    0.451E-01
DAV:  40    -0.411019222942E+03   -0.43326E-03   -0.28529E-03  6336   0.230E-01    0.512E-01
DAV:  41    -0.411018779676E+03    0.44327E-03   -0.18998E-03  6144   0.180E-01    0.237E-01
DAV:  42    -0.411018942522E+03   -0.16285E-03   -0.68646E-04  6000   0.120E-01    0.306E-01
DAV:  43    -0.411019389707E+03   -0.44719E-03   -0.98742E-04  5808   0.141E-01    0.313E-01
DAV:  44    -0.411019439943E+03   -0.50236E-04   -0.90360E-04  5856   0.130E-01    0.155E-01
DAV:  45    -0.411019783919E+03   -0.34398E-03   -0.66288E-04  6144   0.112E-01    0.208E-01
DAV:  46    -0.411020638934E+03   -0.85502E-03   -0.81331E-04  6096   0.113E-01    0.184E-01
DAV:  47    -0.411020544992E+03    0.93942E-04   -0.54996E-04  6048   0.947E-02    0.839E-02
DAV:  48    -0.411020802266E+03   -0.25727E-03   -0.27088E-04  5856   0.715E-02    0.135E-01
DAV:  49    -0.411021254298E+03   -0.45203E-03   -0.29446E-04  5952   0.737E-02    0.905E-02
DAV:  50    -0.411021386358E+03   -0.13206E-03   -0.14230E-04  6096   0.536E-02    0.648E-02
DAV:  51    -0.411021705933E+03   -0.31957E-03   -0.14490E-04  6096   0.539E-02    0.105E-01
DAV:  52    -0.411021645796E+03    0.60136E-04   -0.30649E-04  5904   0.695E-02    0.132E-01
DAV:  53    -0.411022027558E+03   -0.38176E-03   -0.18742E-04  5856   0.524E-02    0.115E-01
DAV:  54    -0.411022227089E+03   -0.19953E-03   -0.12656E-04  5760   0.509E-02    0.922E-02
DAV:  55    -0.411022363585E+03   -0.13650E-03   -0.86392E-05  5760   0.383E-02    0.542E-02
DAV:  56    -0.411022488783E+03   -0.12520E-03   -0.51595E-05  5808   0.309E-02    0.511E-02
DAV:  57    -0.411022520714E+03   -0.31931E-04   -0.77184E-05  5616   0.376E-02    0.709E-02
DAV:  58    -0.411022590501E+03   -0.69787E-04   -0.69606E-05  5472   0.293E-02    0.351E-02
DAV:  59    -0.411022725661E+03   -0.13516E-03   -0.29049E-05  5520   0.199E-02    0.288E-02
DAV:  60    -0.411022787814E+03   -0.62153E-04   -0.17101E-05  4656   0.190E-02
   2 F= -.41101994E+03 E0= -.41090291E+03  d E =0.128260E+04
       N       E                     dE             d eps       ncg     rms          rms(c)
DAV:   1    -0.414986121025E+03   -0.39634E+01   -0.85099E+02  5280   0.415E+01    0.905E+00
DAV:   2    -0.454249393492E+03   -0.39263E+02   -0.14003E+02  6240   0.576E+01    0.799E+01
DAV:   3    -0.435016882054E+03    0.19233E+02   -0.12352E+02  7152   0.508E+01    0.728E+01
DAV:   4    -0.421382492871E+03    0.13634E+02   -0.11047E+02  6576   0.247E+01    0.393E+01
DAV:   5    -0.417252600483E+03    0.41299E+01   -0.23026E+01  6816   0.180E+01    0.228E+01
DAV:   6    -0.416648258567E+03    0.60434E+00   -0.13987E+01  7728   0.110E+01    0.140E+01
DAV:   7    -0.416987751941E+03   -0.33949E+00   -0.72116E+00  6144   0.931E+00    0.191E+01
DAV:   8    -0.416803142964E+03    0.18461E+00   -0.10328E+01  6384   0.955E+00    0.171E+01
DAV:   9    -0.416336859649E+03    0.46628E+00   -0.39086E+00  6000   0.675E+00    0.104E+01
DAV:  10    -0.416204808230E+03    0.13205E+00   -0.13762E+00  5952   0.471E+00    0.779E+00
DAV:  11    -0.416240434249E+03   -0.35626E-01   -0.16582E+00  6048   0.499E+00    0.831E+00
DAV:  12    -0.416208249663E+03    0.32185E-01   -0.14984E+00  6576   0.466E+00    0.847E+00
DAV:  13    -0.416303201120E+03   -0.94951E-01   -0.19452E+00  6096   0.482E+00    0.102E+01
DAV:  14    -0.416226289412E+03    0.76912E-01   -0.25928E+00  6048   0.522E+00    0.789E+00
DAV:  15    -0.416127550152E+03    0.98739E-01   -0.87960E-01  6672   0.372E+00    0.563E+00
DAV:  16    -0.416147230269E+03   -0.19680E-01   -0.66822E-01  6240   0.304E+00    0.641E+00
DAV:  17    -0.416111232263E+03    0.35998E-01   -0.70844E-01  5952   0.280E+00    0.559E+00
DAV:  18    -0.416042764435E+03    0.68468E-01   -0.34514E-01  5856   0.199E+00    0.197E+00
DAV:  19    -0.416037648973E+03    0.51155E-02   -0.59569E-02  7872   0.915E-01    0.151E+00
DAV:  20    -0.416046135687E+03   -0.84867E-02   -0.74648E-02  5904   0.106E+00    0.237E+00
DAV:  21    -0.416036879321E+03    0.92564E-02   -0.60792E-02  5904   0.942E-01    0.170E+00
DAV:  22    -0.416034486908E+03    0.23924E-02   -0.13019E-02  5712   0.432E-01    0.135E+00
DAV:  23    -0.416034219599E+03    0.26731E-03   -0.92296E-03  5760   0.382E-01    0.123E+00
DAV:  24    -0.416032300702E+03    0.19189E-02   -0.14327E-02  5952   0.442E-01    0.745E-01
DAV:  25    -0.416031398636E+03    0.90207E-03   -0.57453E-03  6096   0.330E-01    0.482E-01
DAV:  26    -0.416031995130E+03   -0.59649E-03   -0.46121E-03  5760   0.286E-01    0.627E-01
DAV:  27    -0.416031411843E+03    0.58329E-03   -0.49570E-03  5616   0.274E-01    0.439E-01
DAV:  28    -0.416031135637E+03    0.27621E-03   -0.19676E-03  5568   0.168E-01    0.363E-01
DAV:  29    -0.416031102300E+03    0.33337E-04   -0.57345E-04  7344   0.874E-02    0.320E-01
DAV:  30    -0.416031003265E+03    0.99035E-04   -0.49004E-04  5664   0.850E-02    0.221E-01
DAV:  31    -0.416030949355E+03    0.53910E-04   -0.26094E-04  6096   0.672E-02    0.181E-01
DAV:  32    -0.416030968713E+03   -0.19358E-04   -0.14233E-04  6192   0.527E-02    0.161E-01
DAV:  33    -0.416030943064E+03    0.25649E-04   -0.26441E-04  5616   0.582E-02    0.791E-02
DAV:  34    -0.416030937460E+03    0.56043E-05   -0.85696E-05  5472   0.390E-02    0.538E-02
DAV:  35    -0.416030947718E+03   -0.10258E-04   -0.40313E-05  5568   0.283E-02    0.636E-02
DAV:  36    -0.416030950164E+03   -0.24454E-05   -0.42509E-05  5568   0.283E-02    0.532E-02
DAV:  37    -0.416030950705E+03   -0.54133E-06   -0.15033E-05  4032   0.170E-02    0.519E-02
DAV:  38    -0.416030954748E+03   -0.40432E-05   -0.33950E-05  3792   0.210E-02    0.364E-02
DAV:  39    -0.416030955153E+03   -0.40508E-06   -0.20353E-05  3504   0.176E-02    0.231E-02
DAV:  40    -0.416030955794E+03   -0.64046E-06   -0.34449E-06  3504   0.777E-03
   3 F= -.41602722E+03 E0= -.41589299E+03  d E =0.127759E+04
       N       E                     dE             d eps       ncg     rms          rms(c)
DAV:   1    -0.417601534131E+03   -0.15706E+01   -0.20674E+02  5280   0.200E+01    0.384E+00
DAV:   2    -0.425088127232E+03   -0.74866E+01   -0.24530E+01  6768   0.191E+01    0.422E+01
DAV:   3    -0.422734049132E+03    0.23541E+01   -0.45915E+01  6624   0.218E+01    0.432E+01
DAV:   4    -0.418344127955E+03    0.43899E+01   -0.24672E+01  6864   0.126E+01    0.146E+01
DAV:   5    -0.417908126189E+03    0.43600E+00   -0.36135E+00  6480   0.671E+00    0.598E+00
DAV:   6    -0.417973789043E+03   -0.65663E-01   -0.14176E+00  6432   0.446E+00    0.791E+00
DAV:   7    -0.417984771744E+03   -0.10983E-01   -0.18643E+00  6816   0.452E+00    0.855E+00
DAV:   8    -0.417862914318E+03    0.12186E+00   -0.15603E+00  6192   0.378E+00    0.492E+00
DAV:   9    -0.417874759141E+03   -0.11845E-01   -0.58634E-01  6816   0.251E+00    0.514E+00
DAV:  10    -0.417880660285E+03   -0.59011E-02   -0.64175E-01  6096   0.274E+00    0.535E+00
DAV:  11    -0.417816067348E+03    0.64593E-01   -0.40066E-01  6048   0.245E+00    0.272E+00
DAV:  12    -0.417830205169E+03   -0.14138E-01   -0.20337E-01  6240   0.180E+00    0.355E+00
DAV:  13    -0.417879967914E+03   -0.49763E-01   -0.47495E-01  6000   0.234E+00    0.574E+00
DAV:  14    -0.417820256766E+03    0.59711E-01   -0.43774E-01  6048   0.219E+00    0.280E+00
DAV:  15    -0.417804310472E+03    0.15946E-01   -0.10228E-01  6672   0.117E+00    0.159E+00
DAV:  16    -0.417802560647E+03    0.17498E-02   -0.36195E-02  7440   0.709E-01    0.139E+00
DAV:  17    -0.417801523904E+03    0.10367E-02   -0.37646E-02  5904   0.691E-01    0.119E+00
DAV:  18    -0.417798242763E+03    0.32811E-02   -0.18577E-02  6144   0.527E-01    0.465E-01
DAV:  19    -0.417798789049E+03   -0.54629E-03   -0.61873E-03  5856   0.324E-01    0.583E-01
DAV:  20    -0.417798643643E+03    0.14541E-03   -0.61660E-03  5712   0.298E-01    0.505E-01
DAV:  21    -0.417798162764E+03    0.48088E-03   -0.37631E-03  5712   0.235E-01    0.247E-01
DAV:  22    -0.417798260401E+03   -0.97637E-04   -0.16782E-03  5712   0.168E-01    0.275E-01
DAV:  23    -0.417798385552E+03   -0.12515E-03   -0.20407E-03  5760   0.188E-01    0.325E-01
DAV:  24    -0.417798105858E+03    0.27969E-03   -0.15563E-03  5520   0.162E-01    0.134E-01
DAV:  25    -0.417798092027E+03    0.13831E-04   -0.32955E-04  6576   0.665E-02    0.938E-02
DAV:  26    -0.417798141957E+03   -0.49930E-04   -0.38465E-04  5808   0.732E-02    0.156E-01
DAV:  27    -0.417798104233E+03    0.37724E-04   -0.40046E-04  5616   0.716E-02    0.951E-02
DAV:  28    -0.417798085771E+03    0.18462E-04   -0.10803E-04  5904   0.416E-02    0.354E-02
DAV:  29    -0.417798089710E+03   -0.39387E-05   -0.31010E-05  5088   0.238E-02    0.423E-02
DAV:  30    -0.417798093746E+03   -0.40367E-05   -0.29261E-05  5040   0.222E-02    0.316E-02
DAV:  31    -0.417798092580E+03    0.11660E-05   -0.11622E-05  3840   0.149E-02    0.160E-02
DAV:  32    -0.417798094874E+03   -0.22934E-05   -0.49995E-06  3504   0.996E-03    0.176E-02
DAV:  33    -0.417798098645E+03   -0.37714E-05   -0.70630E-06  3504   0.103E-02    0.146E-02
DAV:  34    -0.417798099524E+03   -0.87947E-06   -0.22439E-06  3696   0.651E-03
   4 F= -.41779358E+03 E0= -.41765378E+03  d E =0.127582E+04
       N       E                     dE             d eps       ncg     rms          rms(c)
DAV:   1    -0.419095813944E+03   -0.12977E+01   -0.46988E+02  5280   0.304E+01    0.596E+00
DAV:   2    -0.435913542009E+03   -0.16818E+02   -0.58120E+01  6576   0.332E+01    0.581E+01
DAV:   3    -0.430933758369E+03    0.49798E+01   -0.90555E+01  7104   0.344E+01    0.588E+01
DAV:   4    -0.421638208631E+03    0.92955E+01   -0.55876E+01  6912   0.189E+01    0.264E+01
DAV:   5    -0.419917895753E+03    0.17203E+01   -0.10278E+01  6432   0.115E+01    0.111E+01
DAV:   6    -0.419902753965E+03    0.15142E-01   -0.38750E+00  7728   0.681E+00    0.101E+01
DAV:   7    -0.419955837507E+03   -0.53084E-01   -0.29307E+00  6768   0.581E+00    0.127E+01
DAV:   8    -0.419806774684E+03    0.14906E+00   -0.52035E+00  6192   0.603E+00    0.983E+00
DAV:   9    -0.419727974887E+03    0.78800E-01   -0.12680E+00  6288   0.369E+00    0.747E+00
DAV:  10    -0.419714116622E+03    0.13858E-01   -0.99948E-01  6048   0.363E+00    0.687E+00
DAV:  11    -0.419637253938E+03    0.76863E-01   -0.89850E-01  6240   0.371E+00    0.507E+00
DAV:  12    -0.419625615009E+03    0.11639E-01   -0.44333E-01  6432   0.277E+00    0.450E+00
DAV:  13    -0.419694456057E+03   -0.68841E-01   -0.70966E-01  6048   0.330E+00    0.678E+00
DAV:  14    -0.419616086679E+03    0.78369E-01   -0.73456E-01  6336   0.304E+00    0.441E+00
DAV:  15    -0.419588941440E+03    0.27145E-01   -0.23886E-01  6192   0.173E+00    0.311E+00
DAV:  16    -0.419588449553E+03    0.49189E-03   -0.18323E-01  6048   0.161E+00    0.292E+00
DAV:  17    -0.419567700061E+03    0.20749E-01   -0.99784E-02  5952   0.118E+00    0.134E+00
DAV:  18    -0.419568976419E+03   -0.12764E-02   -0.34120E-02  6672   0.668E-01    0.118E+00
DAV:  19    -0.419572147511E+03   -0.31711E-02   -0.37482E-02  6096   0.685E-01    0.154E+00
DAV:  20    -0.419568499353E+03    0.36482E-02   -0.36611E-02  5904   0.648E-01    0.100E+00
DAV:  21    -0.419566777038E+03    0.17223E-02   -0.10932E-02  5712   0.365E-01    0.572E-01
DAV:  22    -0.419567011745E+03   -0.23471E-03   -0.45101E-03  5904   0.274E-01    0.585E-01
DAV:  23    -0.419567211550E+03   -0.19981E-03   -0.73779E-03  6240   0.320E-01    0.544E-01
DAV:  24    -0.419566622388E+03    0.58916E-03   -0.43607E-03  6144   0.275E-01    0.313E-01
DAV:  25    -0.419566610620E+03    0.11768E-04   -0.13698E-03  5856   0.152E-01    0.275E-01
DAV:  26    -0.419566617429E+03   -0.68090E-05   -0.16273E-03  6240   0.157E-01    0.262E-01
DAV:  27    -0.419566536439E+03    0.80990E-04   -0.10271E-03  6096   0.131E-01    0.218E-01
DAV:  28    -0.419566510621E+03    0.25818E-04   -0.35826E-04  6288   0.668E-02    0.189E-01
DAV:  29    -0.419566487736E+03    0.22885E-04   -0.36617E-04  6192   0.707E-02    0.141E-01
DAV:  30    -0.419566446303E+03    0.41433E-04   -0.21976E-04  6240   0.559E-02    0.463E-02
DAV:  31    -0.419566462403E+03   -0.16100E-04   -0.40901E-05  5472   0.266E-02    0.416E-02
DAV:  32    -0.419566477065E+03   -0.14662E-04   -0.42976E-05  5952   0.255E-02    0.465E-02
DAV:  33    -0.419566480288E+03   -0.32234E-05   -0.28207E-05  5760   0.229E-02    0.229E-02
DAV:  34    -0.419566484024E+03   -0.37356E-05   -0.64056E-06  3696   0.111E-02    0.231E-02
DAV:  35    -0.419566500967E+03   -0.16943E-04   -0.86188E-06  4512   0.113E-02    0.176E-02
DAV:  36    -0.419566504774E+03   -0.38075E-05   -0.46923E-06  3792   0.931E-03    0.806E-03
DAV:  37    -0.419566511912E+03   -0.71377E-05   -0.36570E-06  3600   0.852E-03    0.159E-02
DAV:  38    -0.419566522449E+03   -0.10537E-04   -0.40784E-06  4368   0.796E-03    0.966E-03
DAV:  39    -0.419566524066E+03   -0.16168E-05   -0.11410E-06  3456   0.475E-03    0.641E-03
DAV:  40    -0.419566528240E+03   -0.41741E-05   -0.92860E-07  3504   0.403E-03    0.843E-03
DAV:  41    -0.419566534079E+03   -0.58389E-05   -0.10633E-06  3840   0.410E-03    0.432E-03
DAV:  42    -0.419566535638E+03   -0.15595E-05   -0.36789E-07  3600   0.262E-03    0.354E-03
DAV:  43    -0.419566540929E+03   -0.52909E-05   -0.61561E-07  3552   0.302E-03    0.576E-03
DAV:  44    -0.419566544633E+03   -0.37040E-05   -0.57350E-07  3648   0.299E-03    0.362E-03
DAV:  45    -0.419566546311E+03   -0.16777E-05   -0.26057E-07  3408   0.199E-03    0.383E-03
DAV:  46    -0.419566552662E+03   -0.63509E-05   -0.76590E-07  4176   0.228E-03    0.333E-03
DAV:  47    -0.419566553146E+03   -0.48435E-06   -0.19727E-07  3648   0.186E-03
   5 F= -.41956018E+03 E0= -.41941529E+03  d E =0.127406E+04
       N       E                     dE             d eps       ncg     rms          rms(c)
DAV:   1    -0.419957074250E+03   -0.39052E+00   -0.11658E+02  5280   0.149E+01    0.312E+00
DAV:   2    -0.425137623818E+03   -0.51805E+01   -0.10815E+01  6864   0.122E+01    0.309E+01
DAV:   3    -0.420414361147E+03    0.47233E+01   -0.85704E+00  6624   0.131E+01    0.143E+01
DAV:   4    -0.420316888662E+03    0.97472E-01   -0.47897E+00  7824   0.594E+00    0.125E+01
DAV:   5    -0.420093146374E+03    0.22374E+00   -0.21319E+00  6384   0.406E+00    0.491E+00
DAV:   6    -0.420087851669E+03    0.52947E-02   -0.60490E-01  6288   0.267E+00    0.471E+00
DAV:   7    -0.420109283789E+03   -0.21432E-01   -0.72520E-01  6624   0.273E+00    0.589E+00
DAV:   8    -0.420045364796E+03    0.63919E-01   -0.53551E-01  5856   0.242E+00    0.279E+00
DAV:   9    -0.420051922666E+03   -0.65579E-02   -0.19657E-01  6624   0.172E+00    0.303E+00
DAV:  10    -0.420065019238E+03   -0.13097E-01   -0.28008E-01  6144   0.195E+00    0.383E+00
DAV:  11    -0.420031038426E+03    0.33981E-01   -0.19923E-01  5808   0.171E+00    0.172E+00
DAV:  12    -0.420033765906E+03   -0.27275E-02   -0.99161E-02  6048   0.116E+00    0.211E+00
DAV:  13    -0.420057156819E+03   -0.23391E-01   -0.20368E-01  6240   0.148E+00    0.369E+00
DAV:  14    -0.420031059738E+03    0.26097E-01   -0.16802E-01  5856   0.140E+00    0.171E+00
DAV:  15    -0.420025452082E+03    0.56077E-02   -0.30260E-02  6192   0.669E-01    0.104E+00
DAV:  16    -0.420025367898E+03    0.84184E-04   -0.12510E-02  6960   0.462E-01    0.910E-01
DAV:  17    -0.420024291708E+03    0.10762E-02   -0.15605E-02  6432   0.432E-01    0.707E-01
DAV:  18    -0.420023303955E+03    0.98775E-03   -0.61874E-03  6096   0.279E-01    0.359E-01
DAV:  19    -0.420023348945E+03   -0.44990E-04   -0.15931E-03  5952   0.151E-01    0.334E-01
DAV:  20    -0.420023257622E+03    0.91323E-04   -0.13473E-03  6000   0.142E-01    0.218E-01
DAV:  21    -0.420023141699E+03    0.11592E-03   -0.67162E-04  6000   0.108E-01    0.917E-02
DAV:  22    -0.420023177270E+03   -0.35571E-04   -0.35716E-04  5904   0.705E-02    0.138E-01
DAV:  23    -0.420023231972E+03   -0.54702E-04   -0.59009E-04  5808   0.896E-02    0.175E-01
DAV:  24    -0.420023151339E+03    0.80633E-04   -0.41300E-04  5904   0.833E-02    0.547E-02
DAV:  25    -0.420023163479E+03   -0.12140E-04   -0.11870E-04  6000   0.442E-02    0.734E-02
DAV:  26    -0.420023173191E+03   -0.97120E-05   -0.15351E-04  6240   0.437E-02    0.841E-02
DAV:  27    -0.420023163175E+03    0.10015E-04   -0.89104E-05  5904   0.359E-02    0.374E-02
DAV:  28    -0.420023163123E+03    0.51936E-07   -0.16878E-05  3504   0.158E-02    0.325E-02
DAV:  29    -0.420023167350E+03   -0.42269E-05   -0.16819E-05  3648   0.161E-02    0.347E-02
DAV:  30    -0.420023167915E+03   -0.56498E-06   -0.12635E-05  3696   0.147E-02    0.143E-02
DAV:  31    -0.420023168483E+03   -0.56780E-06   -0.24428E-06  3552   0.719E-03
   6 F= -.42001587E+03 E0= -.41986948E+03  d E =0.127360E+04
       N       E                     dE             d eps       ncg     rms          rms(c)
DAV:   1    -0.420126638832E+03   -0.10347E+00   -0.29144E+01  5472   0.742E+00    0.218E+00
DAV:   2    -0.423901743022E+03   -0.37751E+01   -0.58705E+00  7248   0.618E+00    0.264E+01
DAV:   3    -0.421740201385E+03    0.21615E+01   -0.17247E+01  6672   0.104E+01    0.280E+01
DAV:   4    -0.420210108600E+03    0.15301E+01   -0.68220E+00  7056   0.746E+00    0.704E+00
DAV:   5    -0.420137482904E+03    0.72626E-01   -0.78760E-01  7920   0.288E+00    0.224E+00
DAV:   6    -0.420202972209E+03   -0.65489E-01   -0.38366E-01  6096   0.242E+00    0.523E+00
DAV:   7    -0.420171021912E+03    0.31950E-01   -0.55186E-01  6048   0.235E+00    0.396E+00
DAV:   8    -0.420136594181E+03    0.34428E-01   -0.20910E-01  6144   0.155E+00    0.132E+00
DAV:   9    -0.420135737590E+03    0.85659E-03   -0.46323E-02  6384   0.831E-01    0.125E+00
DAV:  10    -0.420141866264E+03   -0.61287E-02   -0.64623E-02  6432   0.946E-01    0.193E+00
DAV:  11    -0.420134495508E+03    0.73708E-02   -0.58946E-02  5952   0.889E-01    0.116E+00
DAV:  12    -0.420133979931E+03    0.51558E-03   -0.26896E-02  5904   0.584E-01    0.105E+00
DAV:  13    -0.420137993265E+03   -0.40133E-02   -0.42039E-02  6144   0.680E-01    0.161E+00
DAV:  14    -0.420133076583E+03    0.49167E-02   -0.39905E-02  5808   0.660E-01    0.839E-01
DAV:  15    -0.420131772603E+03    0.13040E-02   -0.10045E-02  6288   0.352E-01    0.388E-01
DAV:  16    -0.420132475533E+03   -0.70293E-03   -0.65717E-03  6000   0.317E-01    0.609E-01
DAV:  17    -0.420131933962E+03    0.54157E-03   -0.67700E-03  6048   0.297E-01    0.446E-01
DAV:  18    -0.420131515440E+03    0.41852E-03   -0.23065E-03  5616   0.185E-01    0.210E-01
DAV:  19    -0.420131506742E+03    0.86989E-05   -0.57237E-04  6336   0.951E-02    0.190E-01
DAV:  20    -0.420131489621E+03    0.17121E-04   -0.52644E-04  6192   0.877E-02    0.135E-01
DAV:  21    -0.420131435421E+03    0.54200E-04   -0.20764E-04  5952   0.635E-02    0.509E-02
DAV:  22    -0.420131448893E+03   -0.13472E-04   -0.78277E-05  6000   0.347E-02    0.700E-02
DAV:  23    -0.420131463571E+03   -0.14678E-04   -0.15437E-04  6384   0.429E-02    0.862E-02
DAV:  24    -0.420131450651E+03    0.12920E-04   -0.11404E-04  6384   0.401E-02    0.287E-02
DAV:  25    -0.420131453818E+03   -0.31670E-05   -0.23592E-05  4656   0.220E-02    0.311E-02
DAV:  26    -0.420131456972E+03   -0.31537E-05   -0.18559E-05  4224   0.184E-02    0.279E-02
DAV:  27    -0.420131455990E+03    0.98160E-06   -0.10192E-05  3552   0.138E-02    0.131E-02
DAV:  28    -0.420131456851E+03   -0.86089E-06   -0.35798E-06  3552   0.789E-03
   7 F= -.42012348E+03 E0= -.41997656E+03  d E =0.127349E+04
       N       E                     dE             d eps       ncg     rms          rms(c)
DAV:   1    -0.420154030090E+03   -0.22574E-01   -0.72923E+00  5472   0.370E+00    0.149E+00
DAV:   2    -0.422675849282E+03   -0.25218E+01   -0.41001E+00  7584   0.369E+00    0.237E+01
DAV:   3    -0.420940492983E+03    0.17354E+01   -0.94688E+00  7104   0.736E+00    0.216E+01
DAV:   4    -0.420151965625E+03    0.78853E+00   -0.42835E+00  7200   0.505E+00    0.363E+00
DAV:   5    -0.420158516454E+03   -0.65508E-02   -0.28707E-01  7680   0.184E+00    0.189E+00
DAV:   6    -0.420190993421E+03   -0.32477E-01   -0.19242E-01  6144   0.182E+00    0.354E+00
DAV:   7    -0.420160519828E+03    0.30474E-01   -0.19469E-01  5808   0.166E+00    0.181E+00
DAV:   8    -0.420153807536E+03    0.67123E-02   -0.48333E-02  5904   0.711E-01    0.657E-01
DAV:   9    -0.420153950415E+03   -0.14288E-03   -0.13418E-02  6624   0.427E-01    0.643E-01
DAV:  10    -0.420155379526E+03   -0.14291E-02   -0.16307E-02  6144   0.479E-01    0.928E-01
DAV:  11    -0.420153341383E+03    0.20381E-02   -0.12784E-02  5712   0.436E-01    0.435E-01
DAV:  12    -0.420153432581E+03   -0.91198E-04   -0.51692E-03  5616   0.281E-01    0.454E-01
DAV:  13    -0.420154107492E+03   -0.67491E-03   -0.76973E-03  6096   0.323E-01    0.640E-01
DAV:  14    -0.420152993170E+03    0.11143E-02   -0.54997E-03  5856   0.289E-01    0.223E-01
DAV:  15    -0.420153043618E+03   -0.50448E-04   -0.15569E-03  5952   0.154E-01    0.236E-01
DAV:  16    -0.420153291050E+03   -0.24743E-03   -0.23872E-03  6288   0.168E-01    0.385E-01
DAV:  17    -0.420153007862E+03    0.28319E-03   -0.19541E-03  5904   0.152E-01    0.203E-01
DAV:  18    -0.420152941359E+03    0.66504E-04   -0.52353E-04  5856   0.790E-02    0.113E-01
DAV:  19    -0.420152939926E+03    0.14321E-05   -0.14878E-04  7152   0.425E-02    0.960E-02
DAV:  20    -0.420152934155E+03    0.57714E-05   -0.13219E-04  6048   0.415E-02    0.647E-02
DAV:  21    -0.420152921370E+03    0.12785E-04   -0.47703E-05  5760   0.298E-02    0.335E-02
DAV:  22    -0.420152924424E+03   -0.30537E-05   -0.17302E-05  3600   0.178E-02    0.389E-02
DAV:  23    -0.420152928200E+03   -0.37758E-05   -0.38928E-05  4848   0.212E-02    0.453E-02
DAV:  24    -0.420152926333E+03    0.18670E-05   -0.32643E-05  4512   0.201E-02    0.173E-02
DAV:  25    -0.420152927508E+03   -0.11754E-05   -0.80007E-06  3552   0.121E-02    0.182E-02
DAV:  26    -0.420152928911E+03   -0.14032E-05   -0.66979E-06  3456   0.105E-02    0.192E-02
DAV:  27    -0.420152928431E+03    0.48061E-06   -0.48655E-06  3456   0.860E-03
   8 F= -.42014455E+03 E0= -.41999740E+03  d E =0.127347E+04
       N       E                     dE             d eps       ncg     rms          rms(c)
DAV:   1    -0.420155698013E+03   -0.27691E-02   -0.14285E+00  5424   0.164E+00    0.809E-01
DAV:   2    -0.421242665227E+03   -0.10870E+01   -0.19079E+00  7776   0.192E+00    0.208E+01
DAV:   3    -0.420173242379E+03    0.10694E+01   -0.59512E+00  7056   0.343E+00    0.938E+00
DAV:   4    -0.420148150492E+03    0.25092E-01   -0.86902E-01  6720   0.221E+00    0.156E+00
DAV:   5    -0.420165056066E+03   -0.16906E-01   -0.92367E-02  6336   0.113E+00    0.193E+00
DAV:   6    -0.420170314071E+03   -0.52580E-02   -0.10244E-01  5808   0.121E+00    0.221E+00
DAV:   7    -0.420156940979E+03    0.13373E-01   -0.69346E-02  5616   0.102E+00    0.902E-01
DAV:   8    -0.420155433167E+03    0.15078E-02   -0.13497E-02  6960   0.364E-01    0.353E-01
DAV:   9    -0.420155482559E+03   -0.49392E-04   -0.39743E-03  6192   0.241E-01    0.348E-01
DAV:  10    -0.420155523286E+03   -0.40727E-04   -0.29119E-03  5760   0.217E-01    0.352E-01
DAV:  11    -0.420155200493E+03    0.32279E-03   -0.22410E-03  5568   0.187E-01    0.157E-01
DAV:  12    -0.420155269691E+03   -0.69198E-04   -0.11716E-03  5760   0.123E-01    0.210E-01
DAV:  13    -0.420155472108E+03   -0.20242E-03   -0.18854E-03  5808   0.152E-01    0.344E-01
DAV:  14    -0.420155222512E+03    0.24960E-03   -0.18170E-03  5664   0.148E-01    0.177E-01
DAV:  15    -0.420155177137E+03    0.45375E-04   -0.55145E-04  6192   0.820E-02    0.990E-02
DAV:  16    -0.420155195420E+03   -0.18283E-04   -0.30326E-04  6144   0.652E-02    0.118E-01
DAV:  17    -0.420155181567E+03    0.13852E-04   -0.25438E-04  6000   0.612E-02    0.934E-02
DAV:  18    -0.420155160925E+03    0.20642E-04   -0.10555E-04  5760   0.417E-02    0.384E-02
DAV:  19    -0.420155162915E+03   -0.19906E-05   -0.19150E-05  3504   0.169E-02    0.372E-02
DAV:  20    -0.420155163926E+03   -0.10103E-05   -0.23822E-05  3888   0.181E-02    0.339E-02
DAV:  21    -0.420155161649E+03    0.22766E-05   -0.14708E-05  3504   0.152E-02    0.124E-02
DAV:  22    -0.420155162273E+03   -0.62370E-06   -0.25744E-06  3312   0.722E-03
   9 F= -.42014660E+03 E0= -.41999935E+03  d E =0.127347E+04
       N       E                     dE             d eps       ncg     rms          rms(c)
DAV:   1    -0.420361668812E+03   -0.20651E+00   -0.18440E+01  5280   0.470E+00    0.120E+01
DAV:   2    -0.437865992494E+03   -0.17504E+02   -0.20047E+02  9024   0.225E+01    0.445E+01
DAV:   3    -0.457146933820E+03   -0.19281E+02   -0.11516E+02  8112   0.542E+01    0.742E+01
DAV:   4    -0.434805928119E+03    0.22341E+02   -0.86885E+01  6144   0.339E+01    0.614E+01
DAV:   5    -0.423432777736E+03    0.11373E+02   -0.44124E+01  6672   0.194E+01    0.152E+01
DAV:   6    -0.423205625065E+03    0.22715E+00   -0.67928E+00  7968   0.924E+00    0.163E+01
DAV:   7    -0.422883619936E+03    0.32201E+00   -0.75345E+00  6672   0.932E+00    0.198E+01
DAV:   8    -0.421691327497E+03    0.11923E+01   -0.50533E+00  6576   0.784E+00    0.955E+00
DAV:   9    -0.421467273181E+03    0.22405E+00   -0.16470E+00  7536   0.446E+00    0.879E+00
DAV:  10    -0.421203210633E+03    0.26406E+00   -0.16460E+00  7056   0.456E+00    0.981E+00
DAV:  11    -0.420601974107E+03    0.60124E+00   -0.12459E+00  8160   0.419E+00    0.491E+00
DAV:  12    -0.420536461212E+03    0.65513E-01   -0.29864E-01  6624   0.172E+00    0.357E+00
DAV:  13    -0.420463911633E+03    0.72550E-01   -0.92268E-02  7200   0.120E+00    0.378E+00
DAV:  14    -0.420374332778E+03    0.89579E-01   -0.88177E-02  7824   0.112E+00    0.301E+00
DAV:  15    -0.420347933044E+03    0.26400E-01   -0.48433E-02  7248   0.745E-01    0.282E+00
DAV:  16    -0.420298571785E+03    0.49361E-01   -0.75484E-02  7152   0.101E+00    0.316E+00
DAV:  17    -0.420204546989E+03    0.94025E-01   -0.15248E-01  7824   0.136E+00    0.278E+00
DAV:  18    -0.420283083834E+03   -0.78537E-01   -0.37952E-01  7824   0.127E+00    0.818E+00
DAV:  19    -0.420208696789E+03    0.74387E-01   -0.32178E+00  7152   0.132E+00    0.288E+00
DAV:  20    -0.420321850124E+03   -0.11315E+00   -0.32200E-02  8112   0.104E+00    0.259E+00
DAV:  21    -0.420309392910E+03    0.12457E-01   -0.31023E-02  6144   0.565E-01    0.273E+00
DAV:  22    -0.420267852536E+03    0.41540E-01   -0.22141E-02  7248   0.524E-01    0.246E+00
DAV:  23    -0.420233955754E+03    0.33897E-01   -0.78047E-03  7584   0.404E-01    0.208E+00
DAV:  24    -0.420228095473E+03    0.58603E-02   -0.32517E-03  6096   0.173E-01    0.200E+00
DAV:  25    -0.420215347759E+03    0.12748E-01    0.38466E-04  9072   0.152E-01    0.184E+00
DAV:  26    -0.420202545241E+03    0.12803E-01    0.12410E-03  8448   0.141E-01    0.157E+00
DAV:  27    -0.420202293548E+03    0.25169E-03   -0.88986E-04  5712   0.600E-02    0.151E+00
DAV:  28    -0.420202421270E+03   -0.12772E-03   -0.87804E-05  5952   0.351E-02    0.151E+00
DAV:  29    -0.420201497491E+03    0.92378E-03   -0.13401E-04  6144   0.499E-02    0.148E+00
DAV:  30    -0.420198295428E+03    0.32021E-02   -0.74364E-04  7008   0.112E-01    0.138E+00
DAV:  31    -0.420190930460E+03    0.73650E-02   -0.36434E-03  6816   0.183E-01    0.867E-01
DAV:  32    -0.420190568596E+03    0.36186E-03   -0.28446E-03  6912   0.130E-01    0.372E-01
DAV:  33    -0.420191483063E+03   -0.91447E-03   -0.19381E-03  6528   0.102E-01    0.199E-01
DAV:  34    -0.420192362196E+03   -0.87913E-03   -0.16645E-03  7152   0.927E-02    0.430E-01
DAV:  35    -0.420191849323E+03    0.51287E-03   -0.29456E-04  5712   0.547E-02    0.339E-01
DAV:  36    -0.420191927364E+03   -0.78041E-04   -0.40497E-03  7344   0.620E-02    0.303E-01
DAV:  37    -0.420192244417E+03   -0.31705E-03   -0.23573E-04  6048   0.534E-02    0.332E-01
DAV:  38    -0.420191750295E+03    0.49412E-03   -0.62135E-04  6528   0.408E-02    0.960E-02
DAV:  39    -0.420192027100E+03   -0.27680E-03   -0.52087E-04  6384   0.365E-02    0.165E-01
DAV:  40    -0.420192002661E+03    0.24439E-04   -0.49003E-05  5904   0.223E-02    0.136E-01
DAV:  41    -0.420192062882E+03   -0.60221E-04   -0.80406E-04  6432   0.226E-02    0.158E-01
DAV:  42    -0.420192125342E+03   -0.62461E-04   -0.30453E-05  5568   0.168E-02    0.178E-01
DAV:  43    -0.420192008073E+03    0.11727E-03   -0.66729E-05  5136   0.143E-02    0.100E-01
DAV:  44    -0.420192044332E+03   -0.36260E-04   -0.15708E-05  5232   0.103E-02    0.677E-02
DAV:  45    -0.420192071365E+03   -0.27033E-04   -0.38566E-06  4656   0.632E-03    0.562E-02
DAV:  46    -0.420192085566E+03   -0.14201E-04   -0.12136E-05  4320   0.770E-03    0.320E-02
DAV:  47    -0.420192090222E+03   -0.46554E-05   -0.10384E-05  4128   0.751E-03    0.865E-03
DAV:  48    -0.420192121590E+03   -0.31368E-04   -0.21299E-05  4992   0.625E-03    0.484E-02
DAV:  49    -0.420192116605E+03    0.49845E-05   -0.14677E-06  4320   0.488E-03    0.504E-02
DAV:  50    -0.420192110652E+03    0.59537E-05   -0.10261E-05  3408   0.361E-03    0.181E-02
DAV:  51    -0.420192124005E+03   -0.13353E-04   -0.37246E-06  4512   0.343E-03    0.430E-03
DAV:  52    -0.420192130020E+03   -0.60155E-05   -0.11488E-06  4032   0.379E-03    0.939E-03
DAV:  53    -0.420192132520E+03   -0.24998E-05   -0.11944E-06  3408   0.357E-03    0.390E-03
DAV:  54    -0.420192136488E+03   -0.39684E-05   -0.11414E-06  3456   0.184E-03    0.987E-03
DAV:  55    -0.420192137462E+03   -0.97320E-06   -0.24423E-07  3552   0.165E-03
  10 F= -.42018518E+03 E0= -.42003858E+03  d E =-.385751E-01
       N       E                     dE             d eps       ncg     rms          rms(c)
DAV:   1    -0.420193426524E+03   -0.12900E-02   -0.17398E-01  5472   0.467E-01    0.546E-01
DAV:   2    -0.420694618905E+03   -0.50119E+00   -0.98889E-01  8592   0.113E+00    0.181E+01
DAV:   3    -0.420125526911E+03    0.56909E+00   -0.48985E+00  7632   0.219E+00    0.559E+00
DAV:   4    -0.420185873816E+03   -0.60347E-01   -0.33256E-01  6960   0.135E+00    0.110E+00
DAV:   5    -0.420206052423E+03   -0.20179E-01   -0.69651E-02  6720   0.969E-01    0.219E+00
DAV:   6    -0.420197096770E+03    0.89557E-02   -0.63131E-02  5856   0.907E-01    0.125E+00
DAV:   7    -0.420192594905E+03    0.45019E-02   -0.19211E-02  6000   0.546E-01    0.430E-01
DAV:   8    -0.420192688579E+03   -0.93674E-04   -0.33577E-03  7296   0.179E-01    0.345E-01
DAV:   9    -0.420192773965E+03   -0.85387E-04   -0.18741E-03  6048   0.162E-01    0.342E-01
DAV:  10    -0.420192594071E+03    0.17989E-03   -0.11315E-03  6144   0.135E-01    0.241E-01
DAV:  11    -0.420192578660E+03    0.15412E-04   -0.39486E-04  5952   0.776E-02    0.166E-01
DAV:  12    -0.420192593665E+03   -0.15005E-04   -0.14516E-04  5856   0.471E-02    0.164E-01
DAV:  13    -0.420192591657E+03    0.20074E-05   -0.25605E-04  6432   0.553E-02    0.135E-01
DAV:  14    -0.420192595964E+03   -0.43070E-05   -0.18413E-04  6384   0.493E-02    0.600E-02
DAV:  15    -0.420192620337E+03   -0.24373E-04   -0.41155E-05  5664   0.227E-02    0.474E-02
DAV:  16    -0.420192627895E+03   -0.75581E-05   -0.40949E-05  4608   0.211E-02    0.517E-02
DAV:  17    -0.420192629172E+03   -0.12774E-05   -0.50240E-05  5472   0.228E-02    0.384E-02
DAV:  18    -0.420192631122E+03   -0.19495E-05   -0.21943E-05  4224   0.175E-02    0.227E-02
DAV:  19    -0.420192631089E+03    0.33062E-07   -0.83465E-06  3600   0.106E-02
  11 F= -.42018552E+03 E0= -.42003884E+03  d E =-.389171E-01
       N       E                     dE             d eps       ncg     rms          rms(c)
DAV:   1    -0.420222771779E+03   -0.30141E-01   -0.21833E+00  5280   0.186E+00    0.544E-01
DAV:   2    -0.420310471257E+03   -0.87699E-01   -0.48622E-01  7632   0.979E-01    0.375E+00
DAV:   3    -0.420404468784E+03   -0.93998E-01   -0.11869E+00  7008   0.273E+00    0.964E+00
DAV:   4    -0.420232776264E+03    0.17169E+00   -0.91413E-01  7392   0.225E+00    0.209E+00
DAV:   5    -0.420224226482E+03    0.85498E-02   -0.76357E-02  6864   0.835E-01    0.888E-01
DAV:   6    -0.420230960467E+03   -0.67340E-02   -0.48000E-02  6864   0.741E-01    0.168E+00
DAV:   7    -0.420230109024E+03    0.85144E-03   -0.59930E-02  6528   0.781E-01    0.158E+00
DAV:   8    -0.420223987038E+03    0.61220E-02   -0.21865E-02  5712   0.537E-01    0.752E-01
DAV:   9    -0.420223597332E+03    0.38971E-03   -0.52622E-03  6672   0.272E-01    0.568E-01
DAV:  10    -0.420224824285E+03   -0.12270E-02   -0.12950E-02  6960   0.320E-01    0.690E-01
DAV:  11    -0.420225920703E+03   -0.10964E-02   -0.72253E-03  7008   0.296E-01    0.777E-01
DAV:  12    -0.420224863839E+03    0.10569E-02   -0.26266E-03  6288   0.192E-01    0.717E-01
DAV:  13    -0.420223417989E+03    0.14459E-02   -0.22783E-03  6672   0.129E-01    0.408E-01
DAV:  14    -0.420223501241E+03   -0.83252E-04   -0.11157E-03  6960   0.102E-01    0.223E-01
DAV:  15    -0.420223773724E+03   -0.27248E-03   -0.61817E-04  6144   0.844E-02    0.208E-01
DAV:  16    -0.420223824647E+03   -0.50923E-04   -0.66862E-04  6336   0.963E-02    0.192E-01
DAV:  17    -0.420223798309E+03    0.26338E-04   -0.47814E-04  5808   0.854E-02    0.814E-02
DAV:  18    -0.420223819354E+03   -0.21045E-04   -0.86084E-05  5472   0.346E-02    0.362E-02
DAV:  19    -0.420223836635E+03   -0.17282E-04   -0.52563E-05  5664   0.288E-02    0.584E-02
DAV:  20    -0.420223826947E+03    0.96885E-05   -0.44014E-05  5568   0.251E-02    0.268E-02
DAV:  21    -0.420223831182E+03   -0.42356E-05   -0.11121E-05  3936   0.155E-02    0.986E-03
DAV:  22    -0.420223834253E+03   -0.30708E-05   -0.70654E-06  3360   0.115E-02    0.215E-02
DAV:  23    -0.420223833407E+03    0.84618E-06   -0.70914E-06  3600   0.107E-02
  12 F= -.42021688E+03 E0= -.42007056E+03  d E =-.313675E-01
       N       E                     dE             d eps       ncg     rms          rms(c)
DAV:   1    -0.420308798054E+03   -0.84964E-01   -0.19730E+01  5280   0.561E+00    0.156E+00
DAV:   2    -0.420901783425E+03   -0.59299E+00   -0.39574E+00  8016   0.380E+00    0.121E+01
DAV:   3    -0.421149470862E+03   -0.24769E+00   -0.68429E+00  7632   0.671E+00    0.187E+01
DAV:   4    -0.420609589401E+03    0.53988E+00   -0.49824E+00  7584   0.579E+00    0.100E+01
DAV:   5    -0.420355966001E+03    0.25362E+00   -0.13912E+00  7440   0.347E+00    0.334E+00
DAV:   6    -0.420340173889E+03    0.15792E-01   -0.23976E-01  7728   0.160E+00    0.265E+00
DAV:   7    -0.420356587374E+03   -0.16413E-01   -0.25425E-01  6864   0.174E+00    0.370E+00
DAV:   8    -0.420383262454E+03   -0.26675E-01   -0.34686E-01  7200   0.176E+00    0.579E+00
DAV:   9    -0.420313395834E+03    0.69867E-01   -0.24320E-01  5712   0.121E+00    0.237E+00
DAV:  10    -0.420317915811E+03   -0.45200E-02   -0.13553E-01  7200   0.915E-01    0.127E+00
DAV:  11    -0.420332773025E+03   -0.14857E-01   -0.54651E-02  6960   0.797E-01    0.159E+00
DAV:  12    -0.420337150856E+03   -0.43778E-02   -0.52689E-02  6864   0.790E-01    0.194E+00
DAV:  13    -0.420329554258E+03    0.75966E-02   -0.45750E-02  5760   0.713E-01    0.160E+00
DAV:  14    -0.420323642165E+03    0.59121E-02   -0.19295E-02  6144   0.473E-01    0.989E-01
DAV:  15    -0.420322706472E+03    0.93569E-03   -0.54956E-03  7392   0.267E-01    0.822E-01
DAV:  16    -0.420323335031E+03   -0.62856E-03   -0.76597E-03  6720   0.356E-01    0.913E-01
DAV:  17    -0.420321467698E+03    0.18673E-02   -0.58213E-03  6624   0.303E-01    0.536E-01
DAV:  18    -0.420321578894E+03   -0.11120E-03   -0.15368E-03  6192   0.150E-01    0.490E-01
DAV:  19    -0.420321270342E+03    0.30855E-03   -0.71068E-04  6720   0.972E-02    0.400E-01
DAV:  20    -0.420320874277E+03    0.39607E-03   -0.88806E-04  6720   0.909E-02    0.186E-01
DAV:  21    -0.420321095207E+03   -0.22093E-03   -0.23183E-04  5760   0.571E-02    0.130E-01
DAV:  22    -0.420321184574E+03   -0.89366E-04   -0.12207E-04  5712   0.481E-02    0.147E-01
DAV:  23    -0.420321156275E+03    0.28299E-04   -0.15176E-04  5616   0.445E-02    0.588E-01
DAV:  24    -0.769694717703E+03   -0.34937E+03   -0.10331E+02  6432   0.866E-01    0.542E+00
DAV:  25    -0.656170808657E+03    0.11352E+03   -0.33226E+02  6576   0.771E+00    0.578E+00
DAV:  26    -0.843238657503E+03   -0.18707E+03   -0.24944E+02  6432   0.144E+01    0.769E+00
DAV:  27    -0.744198621726E+03    0.99040E+02   -0.15946E+02  6912   0.190E+01    0.959E+00
DAV:  28    -0.729388451348E+03    0.14810E+02   -0.14269E+02  6624   0.194E+01    0.135E+01
DAV:  29    -0.760857709689E+03   -0.31469E+02   -0.13883E+02  6480   0.202E+01    0.146E+01
DAV:  30    -0.739564177811E+03    0.21294E+02   -0.81365E+01  6384   0.202E+01    0.150E+01
DAV:  31    -0.740803101454E+03   -0.12389E+01   -0.13593E+02  6480   0.180E+01    0.149E+01
DAV:  32    -0.731807379581E+03    0.89957E+01   -0.10575E+02  6288   0.176E+01    0.159E+01
DAV:  33    -0.748089109905E+03   -0.16282E+02   -0.18410E+02  6336   0.165E+01    0.149E+01
DAV:  34    -0.781039171310E+03   -0.32950E+02   -0.20146E+02  6576   0.162E+01    0.158E+01
DAV:  35    -0.754929698159E+03    0.26109E+02   -0.16950E+02  6384   0.168E+01    0.159E+01
DAV:  36    -0.732151395797E+03    0.22778E+02   -0.19399E+02  6384   0.162E+01    0.168E+01
DAV:  37    -0.748909045801E+03   -0.16758E+02   -0.23192E+02  6288   0.159E+01    0.166E+01
DAV:  38    -0.774778425381E+03   -0.25869E+02   -0.29255E+02  6432   0.157E+01    0.168E+01
DAV:  39    -0.829494023521E+03   -0.54716E+02   -0.22975E+02  6288   0.166E+01    0.169E+01
DAV:  40    -0.794741942231E+03    0.34752E+02   -0.25162E+02  6288   0.161E+01    0.171E+01
DAV:  41    -0.786184631519E+03    0.85573E+01   -0.26728E+02  6528   0.158E+01    0.174E+01
DAV:  42    -0.759978145128E+03    0.26206E+02   -0.24219E+02  6288   0.163E+01    0.186E+01
DAV:  43    -0.802027435436E+03   -0.42049E+02   -0.27950E+02  6192   0.157E+01    0.175E+01
DAV:  44    -0.838791385522E+03   -0.36764E+02   -0.29330E+02  6336   0.157E+01    0.168E+01
DAV:  45    -0.792340921044E+03    0.46450E+02   -0.28005E+02  6144   0.158E+01    0.178E+01
DAV:  46    -0.836774641968E+03   -0.44434E+02   -0.27776E+02  6528   0.159E+01    0.172E+01
DAV:  47    -0.817213565689E+03    0.19561E+02   -0.25932E+02  6480   0.159E+01    0.179E+01
DAV:  48    -0.826491453927E+03   -0.92779E+01   -0.30735E+02  6144   0.154E+01    0.172E+01
DAV:  49    -0.789515352560E+03    0.36976E+02   -0.30118E+02  6144   0.153E+01    0.176E+01
DAV:  50    -0.851775183536E+03   -0.62260E+02   -0.30424E+02  6384   0.154E+01    0.167E+01
DAV:  51    -0.767494525987E+03    0.84281E+02   -0.26342E+02  6096   0.155E+01    0.179E+01
DAV:  52    -0.830690659704E+03   -0.63196E+02   -0.32169E+02  6096   0.150E+01    0.169E+01
DAV:  53    -0.801015960427E+03    0.29675E+02   -0.27697E+02  6048   0.155E+01    0.172E+01
DAV:  54    -0.795433597524E+03    0.55824E+01   -0.28429E+02  6096   0.152E+01    0.173E+01
DAV:  55    -0.792891766084E+03    0.25418E+01   -0.29514E+02  6480   0.148E+01    0.174E+01
DAV:  56    -0.813937265259E+03   -0.21045E+02   -0.31230E+02  6288   0.151E+01    0.178E+01
DAV:  57    -0.831442098281E+03   -0.17505E+02   -0.32280E+02  6432   0.149E+01    0.189E+01
DAV:  58    -0.828967983755E+03    0.24741E+01   -0.32796E+02  6288   0.151E+01    0.170E+01
DAV:  59    -0.792626833819E+03    0.36341E+02   -0.29422E+02  6192   0.159E+01    0.175E+01
DAV:  60    -0.830164511032E+03   -0.37538E+02   -0.27209E+02  6144   0.162E+01
  13 F= -.83015833E+03 E0= -.83012075E+03  d E =-.409973E+03
       N       E                     dE             d eps       ncg     rms          rms(c)
DAV:   1    -0.405391961275E+03    0.38723E+03   -0.40696E+03  5664   0.784E+01    0.846E+00
DAV:   2    -0.433395203692E+03   -0.28003E+02   -0.14455E+02  7968   0.335E+01    0.551E+01
DAV:   3    -0.425051894735E+03    0.83433E+01   -0.75107E+01  5952   0.357E+01    0.359E+01
DAV:   4    -0.436827318064E+03   -0.11775E+02   -0.92976E+01  7824   0.286E+01    0.663E+01
DAV:   5    -0.424159756546E+03    0.12668E+02   -0.46546E+01  7104   0.237E+01    0.419E+01
DAV:   6    -0.421359953260E+03    0.27998E+01   -0.41954E+01  6576   0.108E+01    0.133E+01
DAV:   7    -0.421448311996E+03   -0.88359E-01   -0.58126E+00  6480   0.964E+00    0.159E+01
DAV:   8    -0.421599710398E+03   -0.15140E+00   -0.78453E+00  6720   0.923E+00    0.190E+01
DAV:   9    -0.420798375515E+03    0.80133E+00   -0.47135E+00  7152   0.788E+00    0.913E+00
DAV:  10    -0.420611033828E+03    0.18734E+00   -0.13075E+00  7056   0.422E+00    0.463E+00
DAV:  11    -0.420620993810E+03   -0.99600E-02   -0.51956E-01  6144   0.279E+00    0.502E+00
DAV:  12    -0.420584073497E+03    0.36920E-01   -0.46714E-01  6000   0.248E+00    0.382E+00
DAV:  13    -0.420554505674E+03    0.29568E-01   -0.21121E-01  6000   0.172E+00    0.217E+00
DAV:  14    -0.420564138846E+03   -0.96332E-02   -0.12284E-01  6000   0.134E+00    0.283E+00
DAV:  15    -0.420565909848E+03   -0.17710E-02   -0.16693E-01  6048   0.149E+00    0.289E+00
DAV:  16    -0.420554006921E+03    0.11903E-01   -0.13332E-01  6048   0.129E+00    0.207E+00
DAV:  17    -0.420555636416E+03   -0.16295E-02   -0.95795E-02  6000   0.105E+00    0.208E+00
DAV:  18    -0.420568435041E+03   -0.12799E-01   -0.11663E-01  7008   0.131E+00    0.255E+00
DAV:  19    -0.420554630597E+03    0.13804E-01   -0.91813E-02  7104   0.129E+00    0.151E+00
DAV:  20    -0.420552095615E+03    0.25350E-02   -0.57809E-02  7152   0.947E-01    0.164E+00
DAV:  21    -0.420550041958E+03    0.20537E-02   -0.47995E-02  7584   0.752E-01    0.139E+00
DAV:  22    -0.420548272674E+03    0.17693E-02   -0.13476E-02  6672   0.387E-01    0.110E+00
DAV:  23    -0.420546375321E+03    0.18974E-02   -0.31225E-03  6768   0.172E-01    0.810E-01
DAV:  24    -0.420546119552E+03    0.25577E-03   -0.10530E-03  7056   0.121E-01    0.725E-01
DAV:  25    -0.420547945756E+03   -0.18262E-02   -0.81615E-03  6096   0.361E-01    0.103E+00
DAV:  26    -0.420547079627E+03    0.86613E-03   -0.13695E-02  6288   0.421E-01    0.836E-01
DAV:  27    -0.420546289978E+03    0.78965E-03   -0.56802E-03  6336   0.308E-01    0.680E-01
DAV:  28    -0.420546078474E+03    0.21150E-03   -0.36385E-03  6144   0.236E-01    0.668E-01
DAV:  29    -0.420545123789E+03    0.95469E-03   -0.36603E-03  6528   0.218E-01    0.380E-01
DAV:  30    -0.420545100771E+03    0.23018E-04   -0.10612E-03  6240   0.134E-01    0.273E-01
DAV:  31    -0.420545236965E+03   -0.13619E-03   -0.66573E-04  5664   0.118E-01    0.301E-01
DAV:  32    -0.420545091769E+03    0.14520E-03   -0.50016E-04  6288   0.998E-02    0.195E-01
DAV:  33    -0.420545103399E+03   -0.11630E-04   -0.84714E-05  5760   0.395E-02    0.173E-01
DAV:  34    -0.420545084697E+03    0.18702E-04   -0.13342E-04  6528   0.420E-02    0.125E-01
DAV:  35    -0.420545076624E+03    0.80737E-05   -0.11839E-04  6336   0.409E-02    0.684E-02
DAV:  36    -0.420545092241E+03   -0.15617E-04   -0.36365E-05  6432   0.263E-02    0.630E-02
DAV:  37    -0.420545104598E+03   -0.12357E-04   -0.49852E-05  5808   0.283E-02    0.487E-02
DAV:  38    -0.420545104525E+03    0.72832E-07   -0.21075E-05  5376   0.216E-02    0.264E-02
DAV:  39    -0.420545113854E+03   -0.93289E-05   -0.12043E-05  3840   0.162E-02    0.311E-02
DAV:  40    -0.420545123879E+03   -0.10025E-04   -0.14423E-05  4032   0.160E-02    0.149E-02
DAV:  41    -0.420545126999E+03   -0.31200E-05   -0.39928E-06  3792   0.887E-03    0.136E-02
DAV:  42    -0.420545138948E+03   -0.11949E-04   -0.43599E-06  3792   0.909E-03    0.153E-02
DAV:  43    -0.420545145292E+03   -0.63438E-05   -0.32120E-06  3696   0.841E-03    0.537E-03
DAV:  44    -0.420545147487E+03   -0.21949E-05   -0.83516E-07  3600   0.373E-03    0.566E-03
DAV:  45    -0.420545157350E+03   -0.98629E-05   -0.10781E-06  3408   0.419E-03    0.696E-03
DAV:  46    -0.420545160789E+03   -0.34394E-05   -0.76158E-07  3648   0.379E-03    0.255E-03
DAV:  47    -0.420545163776E+03   -0.29871E-05   -0.37867E-07  3408   0.273E-03    0.467E-03
DAV:  48    -0.420545174829E+03   -0.11053E-04   -0.57134E-07  3456   0.271E-03    0.405E-03
DAV:  49    -0.420545176903E+03   -0.20742E-05   -0.23364E-07  3648   0.200E-03    0.399E-03
DAV:  50    -0.420545185431E+03   -0.85272E-05   -0.40500E-07  3408   0.219E-03    0.361E-03
DAV:  51    -0.420545188130E+03   -0.26993E-05   -0.23034E-07  3600   0.205E-03    0.175E-03
DAV:  52    -0.420545188567E+03   -0.43686E-06   -0.14541E-07  3216   0.168E-03
  14 F= -.42054144E+03 E0= -.42039733E+03  d E =-.355918E+00
       N       E                     dE             d eps       ncg     rms          rms(c)
DAV:   1    -0.420950904858E+03   -0.40572E+00   -0.34683E+02  5280   0.240E+01    0.144E+01
DAV:   2    -0.463194604216E+03   -0.42244E+02   -0.30533E+02  6480   0.754E+01    0.719E+01
DAV:   3    -0.465295002422E+03   -0.21004E+01   -0.16422E+02  6672   0.650E+01    0.768E+01
DAV:   4    -0.438467485591E+03    0.26828E+02   -0.12629E+02  6288   0.397E+01    0.536E+01
DAV:   5    -0.429556693179E+03    0.89108E+01   -0.53551E+01  7392   0.258E+01    0.310E+01
DAV:   6    -0.429444534001E+03    0.11216E+00   -0.28436E+01  6096   0.246E+01    0.382E+01
DAV:   7    -0.425937682225E+03    0.35069E+01   -0.35878E+01  7536   0.220E+01    0.322E+01
DAV:   8    -0.422529877252E+03    0.34078E+01   -0.15270E+01  8736   0.157E+01    0.187E+01
DAV:   9    -0.421705538511E+03    0.82434E+00   -0.44189E+00  7824   0.757E+00    0.104E+01
DAV:  10    -0.421716779847E+03   -0.11241E-01   -0.25294E+00  6624   0.600E+00    0.127E+01
DAV:  11    -0.421348750562E+03    0.36803E+00   -0.27609E+00  7776   0.552E+00    0.833E+00
DAV:  12    -0.421214425453E+03    0.13433E+00   -0.10544E+00  7680   0.388E+00    0.567E+00
DAV:  13    -0.421274339856E+03   -0.59914E-01   -0.98397E-01  6720   0.394E+00    0.751E+00
DAV:  14    -0.421266087648E+03    0.82522E-02   -0.15676E+00  7728   0.406E+00    0.806E+00
DAV:  15    -0.421196243421E+03    0.69844E-01   -0.92494E-01  7776   0.317E+00    0.612E+00
DAV:  16    -0.421197796771E+03   -0.15533E-02   -0.49440E-01  6000   0.268E+00    0.603E+00
DAV:  17    -0.421170415746E+03    0.27381E-01   -0.68162E-01  6096   0.276E+00    0.453E+00
DAV:  18    -0.421136049064E+03    0.34367E-01   -0.32684E-01  6816   0.215E+00    0.273E+00
DAV:  19    -0.421143838985E+03   -0.77899E-02   -0.14990E-01  7680   0.158E+00    0.326E+00
DAV:  20    -0.421136086155E+03    0.77528E-02   -0.13996E-01  6528   0.160E+00    0.311E+00
DAV:  21    -0.421131134232E+03    0.49519E-02   -0.12343E-01  5808   0.134E+00    0.272E+00
DAV:  22    -0.421127270072E+03    0.38642E-02   -0.10284E-01  5904   0.124E+00    0.214E+00
DAV:  23    -0.421126199137E+03    0.10709E-02   -0.64556E-02  7152   0.100E+00    0.199E+00
DAV:  24    -0.421119159187E+03    0.70400E-02   -0.29888E-02  6096   0.687E-01    0.140E+00
DAV:  25    -0.421114326000E+03    0.48332E-02   -0.11823E-02  6480   0.453E-01    0.740E-01
DAV:  26    -0.421114184938E+03    0.14106E-03   -0.42797E-03  7776   0.263E-01    0.656E-01
DAV:  27    -0.421114392589E+03   -0.20765E-03   -0.57399E-03  6192   0.274E-01    0.651E-01
DAV:  28    -0.421113888361E+03    0.50423E-03   -0.39858E-03  5952   0.226E-01    0.464E-01
DAV:  29    -0.421113844623E+03    0.43737E-04   -0.12582E-03  6096   0.147E-01    0.430E-01
DAV:  30    -0.421113714071E+03    0.13055E-03   -0.13092E-03  6240   0.150E-01    0.315E-01
DAV:  31    -0.421113536090E+03    0.17798E-03   -0.74838E-04  6768   0.119E-01    0.167E-01
DAV:  32    -0.421113554395E+03   -0.18305E-04   -0.20621E-04  7344   0.615E-02    0.141E-01
DAV:  33    -0.421113667036E+03   -0.11264E-03   -0.39469E-04  6336   0.745E-02    0.111E-01
DAV:  34    -0.421113681217E+03   -0.14181E-04   -0.13548E-04  7440   0.513E-02    0.850E-02
DAV:  35    -0.421113698734E+03   -0.17517E-04   -0.48113E-05  5712   0.301E-02    0.708E-02
DAV:  36    -0.421113734339E+03   -0.35605E-04   -0.59424E-05  5760   0.291E-02    0.403E-02
DAV:  37    -0.421113748487E+03   -0.14148E-04   -0.13433E-05  4512   0.162E-02    0.393E-02
DAV:  38    -0.421113815307E+03   -0.66820E-04   -0.25644E-05  5040   0.203E-02    0.349E-02
DAV:  39    -0.421113854646E+03   -0.39339E-04   -0.16023E-05  5280   0.178E-02    0.248E-02
DAV:  40    -0.421113874830E+03   -0.20184E-04   -0.76046E-06  4128   0.117E-02    0.252E-02
DAV:  41    -0.421113940262E+03   -0.65432E-04   -0.11316E-05  4992   0.122E-02    0.173E-02
DAV:  42    -0.421113957644E+03   -0.17382E-04   -0.42920E-06  4128   0.971E-03    0.123E-02
DAV:  43    -0.421113998690E+03   -0.41046E-04   -0.49815E-06  4512   0.968E-03    0.189E-02
DAV:  44    -0.421114033665E+03   -0.34975E-04   -0.52531E-06  4800   0.984E-03    0.109E-02
DAV:  45    -0.421114045303E+03   -0.11637E-04   -0.19402E-06  3840   0.615E-03    0.120E-02
DAV:  46    -0.421114086314E+03   -0.41011E-04   -0.54652E-06  4896   0.733E-03    0.163E-02
DAV:  47    -0.421114090828E+03   -0.45142E-05   -0.22452E-06  3744   0.626E-03    0.685E-03
DAV:  48    -0.421114102975E+03   -0.12147E-04   -0.14685E-06  3696   0.478E-03    0.882E-03
DAV:  49    -0.421114110786E+03   -0.78105E-05   -0.13123E-06  3744   0.449E-03    0.437E-03
DAV:  50    -0.421114112483E+03   -0.16973E-05   -0.28383E-07  3504   0.213E-03    0.343E-03
DAV:  51    -0.421114119356E+03   -0.68732E-05   -0.27336E-07  3504   0.210E-03    0.407E-03
DAV:  52    -0.421114119000E+03    0.35597E-06   -0.28573E-07  3312   0.236E-03
  15 F= -.42111408E+03 E0= -.42097128E+03  d E =-.928565E+00
       N       E                     dE             d eps       ncg     rms          rms(c)
DAV:   1    -0.413525330186E+03    0.75888E+01   -0.16935E+03  5280   0.553E+01    0.261E+01
DAV:   2    -0.492203519232E+03   -0.78678E+02   -0.32036E+02  6384   0.987E+01    0.141E+02
DAV:   3    -0.465255597410E+03    0.26948E+02   -0.78120E+01  7536   0.318E+01    0.103E+02
DAV:   4    -0.489657073216E+03   -0.24401E+02   -0.10407E+02  6480   0.387E+01    0.128E+02
DAV:   5    -0.523591818820E+03   -0.33935E+02   -0.22330E+02  6144   0.593E+01    0.153E+02
DAV:   6    -0.433887219519E+03    0.89705E+02   -0.19285E+02  7344   0.464E+01    0.779E+01
DAV:   7    -0.427887185632E+03    0.60000E+01   -0.35670E+01  6816   0.155E+01    0.622E+01
DAV:   8    -0.439553431027E+03   -0.11666E+02   -0.94355E+01  6240   0.414E+01    0.902E+01
DAV:   9    -0.433498010402E+03    0.60554E+01   -0.49929E+01  5952   0.289E+01    0.793E+01
DAV:  10    -0.428237419944E+03    0.52606E+01   -0.78026E+01  6672   0.253E+01    0.698E+01
DAV:  11    -0.426696862967E+03    0.15406E+01   -0.29413E+01  7104   0.242E+01    0.632E+01
DAV:  12    -0.425003328773E+03    0.16935E+01   -0.27718E+01  6912   0.118E+01    0.587E+01
DAV:  13    -0.423822431303E+03    0.11809E+01   -0.14838E+01  6240   0.128E+01    0.580E+01
DAV:  14    -0.423332035134E+03    0.49040E+00   -0.15433E+01  6480   0.101E+01    0.604E+01
DAV:  15    -0.423301428591E+03    0.30607E-01   -0.20061E+01  6000   0.120E+01    0.616E+01
DAV:  16    -0.423106382939E+03    0.19505E+00   -0.22770E+01  6096   0.151E+01    0.569E+01
DAV:  17    -0.420522632669E+03    0.25838E+01   -0.97537E+00  6192   0.101E+01    0.491E+01
DAV:  18    -0.419939588575E+03    0.58304E+00   -0.67559E+00  6240   0.792E+00    0.493E+01
DAV:  19    -0.419263893023E+03    0.67570E+00   -0.42494E+00  6480   0.579E+00    0.453E+01
DAV:  20    -0.961957511935E+03   -0.54269E+03   -0.91188E+01  6912   0.525E+00    0.432E+01
DAV:  21    -0.140020495877E+04   -0.43825E+03   -0.15929E+02  7536   0.584E+00    0.393E+01
DAV:  22    -0.685732571387E+03    0.71447E+03   -0.24265E+02  6144   0.111E+01    0.399E+01
DAV:  23    -0.713194178670E+03   -0.27462E+02   -0.24671E+02  6720   0.131E+01    0.414E+01
DAV:  24    -0.614768289478E+03    0.98426E+02   -0.15112E+02  7584   0.157E+01    0.395E+01
DAV:  25    -0.574120760375E+03    0.40648E+02   -0.74312E+01  6768   0.153E+01    0.400E+01
DAV:  26    -0.569767096258E+03    0.43537E+01    0.86125E+00  6672   0.150E+01    0.399E+01
DAV:  27    -0.558203845005E+03    0.11563E+02    0.49481E+00  6768   0.138E+01    0.399E+01
DAV:  28    -0.539748114057E+03    0.18456E+02    0.25699E+00  6384   0.130E+01    0.403E+01
DAV:  29    -0.539906049033E+03   -0.15793E+00    0.12403E+01  6336   0.123E+01    0.401E+01
DAV:  30    -0.541765134132E+03   -0.18591E+01   -0.34772E+01  6432   0.113E+01    0.394E+01
DAV:  31    -0.535871070663E+03    0.58941E+01   -0.46545E+01  6480   0.120E+01    0.412E+01
DAV:  32    -0.546679858205E+03   -0.10809E+02    0.27361E+00  6384   0.121E+01    0.392E+01
DAV:  33    -0.519943175146E+03    0.26737E+02   -0.67825E+01  6384   0.122E+01    0.408E+01
DAV:  34    -0.503953539736E+03    0.15990E+02    0.16857E+01  6240   0.117E+01    0.396E+01
DAV:  35    -0.518242167055E+03   -0.14289E+02   -0.27318E+01  6672   0.998E+00    0.400E+01
DAV:  36    -0.547656907156E+03   -0.29415E+02   -0.66613E+01  6096   0.904E+00    0.395E+01
DAV:  37    -0.563297266769E+03   -0.15640E+02   -0.89786E+01  6240   0.110E+01    0.396E+01
DAV:  38    -0.519523947132E+03    0.43773E+02   -0.35817E+01  6432   0.109E+01    0.397E+01
DAV:  39    -0.524760711150E+03   -0.52368E+01   -0.24617E+01  6288   0.105E+01    0.404E+01
DAV:  40    -0.519140758301E+03    0.56200E+01   -0.13760E+01  6096   0.993E+00    0.386E+01
DAV:  41    -0.634594174537E+03   -0.11545E+03   -0.80846E+01  6144   0.953E+00    0.403E+01
DAV:  42    -0.519430058942E+03    0.11516E+03   -0.71881E+01  6384   0.111E+01    0.392E+01
DAV:  43    -0.520664067750E+03   -0.12340E+01   -0.11863E+02  6480   0.123E+01    0.409E+01
DAV:  44    -0.520534901235E+03    0.12917E+00   -0.25828E+00  6336   0.123E+01    0.400E+01
DAV:  45    -0.528022630171E+03   -0.74877E+01   -0.44688E+01  6288   0.110E+01    0.398E+01
DAV:  46    -0.521784025045E+03    0.62386E+01   -0.58927E+01  6336   0.113E+01    0.403E+01
DAV:  47    -0.548689254345E+03   -0.26905E+02   -0.58884E+01  6672   0.285E+01    0.583E+01
DAV:  48    -0.502973765844E+03    0.45715E+02   -0.55365E+01  6912   0.245E+01    0.376E+01
DAV:  49    -0.520495207655E+03   -0.17521E+02    0.25324E+01  7056   0.168E+01    0.336E+01
DAV:  50    -0.692816585082E+03   -0.17232E+03   -0.10413E+02  7584   0.177E+01    0.339E+01
DAV:  51    -0.591019275068E+03    0.10180E+03   -0.41587E+01  7200   0.162E+01    0.288E+01
DAV:  52    -0.142917472737E+04   -0.83816E+03   -0.86345E+02  6960   0.384E+01    0.813E+01
DAV:  53    -0.701740778550E+03    0.72743E+03   -0.85202E+02  7440   0.463E+01    0.710E+01
DAV:  54    -0.501281219839E+03    0.20046E+03    0.12414E+02  7344   0.418E+01    0.588E+01
DAV:  55    -0.539601285040E+03   -0.38320E+02    0.10033E+02  7872   0.282E+01    0.435E+01
DAV:  56    -0.505750462964E+03    0.33851E+02   -0.18104E+02  8352   0.336E+01    0.459E+01
DAV:  57    -0.579909415886E+03   -0.74159E+02   -0.44020E+02  7440   0.465E+01    0.106E+02
DAV:  58    -0.481625183236E+03    0.98284E+02   -0.25213E+02  6720   0.552E+01    0.611E+01
DAV:  59    -0.122080690601E+04   -0.73918E+03   -0.12797E+03  7872   0.321E+01    0.552E+01
DAV:  60    -0.467749490820E+03    0.75306E+03   -0.11387E+03  7056   0.455E+01
  16 F= -.46772040E+03 E0= -.46774199E+03  d E =-.475349E+02
       N       E                     dE             d eps       ncg     rms          rms(c)
DAV:   1    -0.402495427245E+03    0.81831E+03   -0.41968E+03  5664   0.995E+01    0.333E+01
DAV:   2    -0.495046101444E+03   -0.92551E+02   -0.33516E+02  7296   0.961E+01    0.114E+02
DAV:   3    -0.455921465110E+03    0.39125E+02   -0.35313E+02  6144   0.819E+01    0.851E+01
DAV:   4    -0.456567954399E+03   -0.64649E+00   -0.25488E+02  6000   0.652E+01    0.874E+01
DAV:   5    -0.442461245159E+03    0.14107E+02   -0.18907E+02  6000   0.504E+01    0.746E+01
DAV:   6    -0.451633278700E+03   -0.91720E+01   -0.24799E+02  6000   0.545E+01    0.940E+01
DAV:   7    -0.444727543704E+03    0.69057E+01   -0.35968E+02  6336   0.459E+01    0.624E+01
DAV:   8    -0.433315066137E+03    0.11412E+02   -0.10141E+02  5856   0.397E+01    0.445E+01
DAV:   9    -0.435921453854E+03   -0.26064E+01   -0.78935E+01  6000   0.444E+01    0.581E+01
DAV:  10    -0.432906263175E+03    0.30152E+01   -0.70204E+01  6048   0.317E+01    0.609E+01
DAV:  11    -0.428209669344E+03    0.46966E+01   -0.69422E+01  5856   0.236E+01    0.427E+01
DAV:  12    -0.424804186733E+03    0.34055E+01   -0.37748E+01  6000   0.205E+01    0.325E+01
DAV:  13    -0.423058883715E+03    0.17453E+01   -0.17091E+01  6960   0.140E+01    0.233E+01
DAV:  14    -0.422772477224E+03    0.28641E+00   -0.11135E+01  6000   0.118E+01    0.227E+01
DAV:  15    -0.422526214657E+03    0.24626E+00   -0.10305E+01  6288   0.107E+01    0.209E+01
DAV:  16    -0.422245398435E+03    0.28082E+00   -0.89201E+00  6096   0.103E+01    0.178E+01
DAV:  17    -0.421950648050E+03    0.29475E+00   -0.49432E+00  6384   0.792E+00    0.151E+01
DAV:  18    -0.422129949193E+03   -0.17930E+00   -0.46202E+00  6048   0.865E+00    0.158E+01
DAV:  19    -0.422140857902E+03   -0.10909E-01   -0.40304E+00  5952   0.837E+00    0.174E+01
DAV:  20    -0.421796493449E+03    0.34436E+00   -0.39124E+00  6048   0.758E+00    0.141E+01
DAV:  21    -0.421753296219E+03    0.43197E-01   -0.30937E+00  6432   0.674E+00    0.139E+01
DAV:  22    -0.421435180180E+03    0.31812E+00   -0.28521E+00  6336   0.644E+00    0.101E+01
DAV:  23    -0.421393743838E+03    0.41436E-01   -0.24223E+00  5760   0.572E+00    0.895E+00
DAV:  24    -0.421400750977E+03   -0.70071E-02   -0.21403E+00  6000   0.507E+00    0.912E+00
DAV:  25    -0.421280488235E+03    0.12026E+00   -0.13885E+00  6720   0.449E+00    0.634E+00
DAV:  26    -0.421244699516E+03    0.35789E-01   -0.65308E-01  6432   0.309E+00    0.519E+00
DAV:  27    -0.421222100054E+03    0.22599E-01   -0.44668E-01  6624   0.257E+00    0.494E+00
DAV:  28    -0.421187175378E+03    0.34925E-01   -0.22625E-01  7296   0.189E+00    0.371E+00
DAV:  29    -0.421210117187E+03   -0.22942E-01   -0.21181E-01  5856   0.202E+00    0.454E+00
DAV:  30    -0.421174504128E+03    0.35613E-01   -0.20413E-01  6240   0.191E+00    0.304E+00
DAV:  31    -0.421168254287E+03    0.62498E-02   -0.61301E-02  6816   0.103E+00    0.241E+00
DAV:  32    -0.421164908859E+03    0.33454E-02   -0.63487E-02  6240   0.107E+00    0.200E+00
DAV:  33    -0.421157960763E+03    0.69481E-02   -0.59472E-02  6144   0.111E+00    0.144E+00
DAV:  34    -0.421159242393E+03   -0.12816E-02   -0.32023E-02  6096   0.794E-01    0.146E+00
DAV:  35    -0.421155194386E+03    0.40480E-02   -0.27343E-02  6096   0.710E-01    0.950E-01
DAV:  36    -0.421154366442E+03    0.82794E-03   -0.12477E-02  6048   0.508E-01    0.800E-01
DAV:  37    -0.421154916106E+03   -0.54966E-03   -0.91157E-03  6480   0.395E-01    0.876E-01
DAV:  38    -0.421153772411E+03    0.11437E-02   -0.70890E-03  6240   0.348E-01    0.522E-01
DAV:  39    -0.421153863369E+03   -0.90957E-04   -0.31413E-03  6288   0.234E-01    0.529E-01
DAV:  40    -0.421154111042E+03   -0.24767E-03   -0.40822E-03  6000   0.268E-01    0.434E-01
DAV:  41    -0.421153937429E+03    0.17361E-03   -0.20152E-03  5952   0.205E-01    0.305E-01
DAV:  42    -0.421154272428E+03   -0.33500E-03   -0.15998E-03  5616   0.178E-01    0.347E-01
DAV:  43    -0.421154222318E+03    0.50110E-04   -0.12476E-03  5712   0.157E-01    0.178E-01
DAV:  44    -0.421154309400E+03   -0.87082E-04   -0.34311E-04  6864   0.776E-02    0.165E-01
DAV:  45    -0.421154638157E+03   -0.32876E-03   -0.40040E-04  5664   0.767E-02    0.112E-01
DAV:  46    -0.421154725612E+03   -0.87455E-04   -0.17728E-04  5760   0.604E-02    0.637E-02
DAV:  47    -0.421154890708E+03   -0.16510E-03   -0.14009E-04  5712   0.515E-02    0.914E-02
DAV:  48    -0.421155059256E+03   -0.16855E-03   -0.12921E-04  5712   0.495E-02    0.375E-02
DAV:  49    -0.421155173537E+03   -0.11428E-03   -0.65284E-05  5760   0.365E-02    0.613E-02
DAV:  50    -0.421155394785E+03   -0.22125E-03   -0.73021E-05  5712   0.357E-02    0.435E-02
DAV:  51    -0.421155467908E+03   -0.73124E-04   -0.33466E-05  5760   0.258E-02    0.308E-02
DAV:  52    -0.421155639844E+03   -0.17194E-03   -0.36010E-05  5616   0.252E-02    0.455E-02
DAV:  53    -0.421155731262E+03   -0.91418E-04   -0.33719E-05  5664   0.251E-02    0.241E-02
DAV:  54    -0.421155836333E+03   -0.10507E-03   -0.19421E-05  5472   0.191E-02    0.309E-02
DAV:  55    -0.421156085877E+03   -0.24954E-03   -0.26524E-05  5712   0.197E-02    0.284E-02
DAV:  56    -0.421156187118E+03   -0.10124E-03   -0.18509E-05  5568   0.193E-02    0.277E-02
DAV:  57    -0.421156233389E+03   -0.46271E-04   -0.17802E-05  5376   0.184E-02    0.257E-02
DAV:  58    -0.421156279725E+03   -0.46335E-04   -0.13571E-05  5088   0.146E-02    0.232E-02
DAV:  59    -0.421156419825E+03   -0.14010E-03   -0.15667E-05  5424   0.137E-02    0.220E-02
DAV:  60    -0.421156463040E+03   -0.43215E-04   -0.82292E-06  5232   0.127E-02
  17 F= -.42115646E+03 E0= -.42101371E+03  d E =-.970941E+00
       N       E                     dE             d eps       ncg     rms          rms(c)
DAV:   1    -0.421392139600E+03   -0.23572E+00   -0.32035E+02  5280   0.228E+01    0.184E+01
DAV:   2    -0.479350140911E+03   -0.57958E+02   -0.41084E+02  6240   0.926E+01    0.907E+01
DAV:   3    -0.474309795027E+03    0.50403E+01   -0.17723E+02  7104   0.681E+01    0.844E+01
DAV:   4    -0.445137123726E+03    0.29173E+02   -0.11507E+02  6528   0.436E+01    0.542E+01
DAV:   5    -0.445792479856E+03   -0.65536E+00   -0.78305E+01  6432   0.338E+01    0.697E+01
DAV:   6    -0.444635174812E+03    0.11573E+01   -0.12318E+02  6624   0.378E+01    0.648E+01
DAV:   7    -0.425923202538E+03    0.18712E+02   -0.61101E+01  6768   0.349E+01    0.353E+01
DAV:   8    -0.423290887374E+03    0.26323E+01   -0.16073E+01  8064   0.158E+01    0.279E+01
DAV:   9    -0.422921818735E+03    0.36907E+00   -0.17754E+01  6336   0.140E+01    0.243E+01
DAV:  10    -0.422341130175E+03    0.58069E+00   -0.16050E+01  7824   0.118E+01    0.214E+01
DAV:  11    -0.421968453003E+03    0.37268E+00   -0.61106E+00  7392   0.100E+01    0.203E+01
DAV:  12    -0.421742237766E+03    0.22622E+00   -0.43311E+00  6816   0.655E+00    0.172E+01
DAV:  13    -0.421371169983E+03    0.37107E+00   -0.33203E+00  6864   0.588E+00    0.108E+01
DAV:  14    -0.421266946323E+03    0.10422E+00   -0.21356E+00  6480   0.577E+00    0.915E+00
DAV:  15    -0.421528743531E+03   -0.26180E+00   -0.26919E+00  6336   0.568E+00    0.147E+01
DAV:  16    -0.421252266138E+03    0.27648E+00   -0.22750E+00  6144   0.452E+00    0.935E+00
DAV:  17    -0.421172168501E+03    0.80098E-01   -0.74794E-01  6768   0.300E+00    0.744E+00
DAV:  18    -0.421168757910E+03    0.34106E-02   -0.62251E-01  5952   0.296E+00    0.676E+00
DAV:  19    -0.421128819627E+03    0.39938E-01   -0.67153E-01  6000   0.271E+00    0.511E+00
DAV:  20    -0.421142721778E+03   -0.13902E-01   -0.32813E-01  7152   0.225E+00    0.571E+00
DAV:  21    -0.421156618074E+03   -0.13896E-01   -0.45885E-01  6192   0.235E+00    0.587E+00
DAV:  22    -0.421105679424E+03    0.50939E-01   -0.26245E-01  6144   0.194E+00    0.439E+00
DAV:  23    -0.421103992461E+03    0.16870E-02   -0.98491E-02  6000   0.134E+00    0.451E+00
DAV:  24    -0.421094651242E+03    0.93412E-02   -0.14615E-01  5856   0.134E+00    0.395E+00
DAV:  25    -0.421068605714E+03    0.26046E-01   -0.10665E-01  6240   0.114E+00    0.231E+00
DAV:  26    -0.421066324356E+03    0.22814E-02   -0.33633E-02  6096   0.740E-01    0.212E+00
DAV:  27    -0.421062524890E+03    0.37995E-02   -0.23141E-02  6384   0.612E-01    0.158E+00
DAV:  28    -0.421058495543E+03    0.40293E-02   -0.18953E-02  6000   0.591E-01    0.104E+00
DAV:  29    -0.421058114283E+03    0.38126E-03   -0.60139E-03  6000   0.314E-01    0.950E-01
DAV:  30    -0.421058896912E+03   -0.78263E-03   -0.79443E-03  6048   0.366E-01    0.101E+00
DAV:  31    -0.421056895556E+03    0.20014E-02   -0.68592E-03  6048   0.337E-01    0.522E-01
DAV:  32    -0.421056879444E+03    0.16112E-04   -0.17930E-03  6336   0.181E-01    0.506E-01
DAV:  33    -0.421056882177E+03   -0.27331E-05   -0.26024E-03  6144   0.201E-01    0.469E-01
DAV:  34    -0.421056583180E+03    0.29900E-03   -0.18932E-03  7296   0.177E-01    0.243E-01
DAV:  35    -0.421056620621E+03   -0.37442E-04   -0.50122E-04  6960   0.911E-02    0.246E-01
DAV:  36    -0.421056679639E+03   -0.59017E-04   -0.73173E-04  5904   0.985E-02    0.158E-01
DAV:  37    -0.421056644027E+03    0.35612E-04   -0.30320E-04  5712   0.760E-02    0.608E-02
DAV:  38    -0.421056680441E+03   -0.36414E-04   -0.70819E-05  5664   0.398E-02    0.665E-02
DAV:  39    -0.421056765574E+03   -0.85133E-04   -0.80326E-05  5712   0.382E-02    0.483E-02
DAV:  40    -0.421056776082E+03   -0.10508E-04   -0.34772E-05  5664   0.254E-02    0.251E-02
DAV:  41    -0.421056823674E+03   -0.47592E-04   -0.26768E-05  5376   0.229E-02    0.453E-02
DAV:  42    -0.421056867519E+03   -0.43845E-04   -0.22118E-05  5136   0.208E-02    0.262E-02
DAV:  43    -0.421056879873E+03   -0.12355E-04   -0.56491E-06  3936   0.110E-02    0.244E-02
DAV:  44    -0.421056930218E+03   -0.50344E-04   -0.10214E-05  4464   0.139E-02    0.233E-02
DAV:  45    -0.421056955918E+03   -0.25700E-04   -0.67724E-06  4032   0.116E-02    0.154E-02
DAV:  46    -0.421056973154E+03   -0.17236E-04   -0.31063E-06  3840   0.761E-03    0.170E-02
DAV:  47    -0.421057015420E+03   -0.42266E-04   -0.37685E-06  4608   0.763E-03    0.137E-02
DAV:  48    -0.421057022781E+03   -0.73618E-05   -0.14226E-06  3792   0.525E-03    0.119E-02
DAV:  49    -0.421057044414E+03   -0.21633E-04   -0.19798E-06  3744   0.548E-03    0.124E-02
DAV:  50    -0.421057067354E+03   -0.22940E-04   -0.19728E-06  4128   0.553E-03    0.523E-03
DAV:  51    -0.421057080452E+03   -0.13098E-04   -0.11741E-06  3600   0.469E-03    0.847E-03
DAV:  52    -0.421057094857E+03   -0.14405E-04   -0.18302E-06  3648   0.527E-03    0.810E-03
DAV:  53    -0.421057102034E+03   -0.71766E-05   -0.87278E-07  3648   0.387E-03    0.819E-03
DAV:  54    -0.421057116757E+03   -0.14723E-04   -0.10472E-06  3792   0.359E-03    0.645E-03
DAV:  55    -0.421057121170E+03   -0.44124E-05   -0.52748E-07  3648   0.301E-03    0.424E-03
DAV:  56    -0.421057125654E+03   -0.44847E-05   -0.44252E-07  3552   0.232E-03    0.357E-03
DAV:  57    -0.421057126905E+03   -0.12507E-05   -0.41777E-07  3600   0.261E-03    0.489E-03
DAV:  58    -0.421057128230E+03   -0.13247E-05   -0.31552E-07  3360   0.197E-03    0.224E-03
DAV:  59    -0.421057129854E+03   -0.16242E-05   -0.10120E-07  3360   0.124E-03    0.180E-03
DAV:  60    -0.421057131100E+03   -0.12465E-05   -0.80977E-08  3312   0.121E-03
  18 F= -.42105133E+03 E0= -.42090829E+03  d E =-.865810E+00
       N       E                     dE             d eps       ncg     rms          rms(c)
DAV:   1    -0.421234495689E+03   -0.17737E+00   -0.16342E+02  5280   0.145E+01    0.656E+00
DAV:   2    -0.436160653837E+03   -0.14926E+02   -0.23713E+01  8256   0.215E+01    0.673E+01
DAV:   3    -0.424341640063E+03    0.11819E+02   -0.44884E+01  6720   0.203E+01    0.352E+01
DAV:   4    -0.421865036513E+03    0.24766E+01   -0.15372E+01  7392   0.123E+01    0.155E+01
DAV:   5    -0.422697125697E+03   -0.83209E+00   -0.11309E+01  7632   0.117E+01    0.223E+01
DAV:   6    -0.422343832881E+03    0.35329E+00   -0.13483E+01  6240   0.121E+01    0.186E+01
DAV:   7    -0.422148502489E+03    0.19533E+00   -0.79676E+00  7296   0.967E+00    0.184E+01
DAV:   8    -0.422485645142E+03   -0.33714E+00   -0.88897E+00  6384   0.941E+00    0.209E+01
DAV:   9    -0.421644391681E+03    0.84125E+00   -0.64416E+00  6480   0.848E+00    0.101E+01
DAV:  10    -0.421346984788E+03    0.29741E+00   -0.14594E+00  7440   0.538E+00    0.451E+00
DAV:  11    -0.421397542448E+03   -0.50558E-01   -0.76240E-01  7056   0.343E+00    0.661E+00
DAV:  12    -0.421326211696E+03    0.71331E-01   -0.72682E-01  6480   0.298E+00    0.446E+00
DAV:  13    -0.421293117283E+03    0.33094E-01   -0.32614E-01  7008   0.209E+00    0.297E+00
DAV:  14    -0.421302635045E+03   -0.95178E-02   -0.21190E-01  5952   0.157E+00    0.340E+00
DAV:  15    -0.421308887614E+03   -0.62526E-02   -0.24581E-01  5904   0.183E+00    0.343E+00
DAV:  16    -0.421280842297E+03    0.28045E-01   -0.17000E-01  5904   0.173E+00    0.171E+00
DAV:  17    -0.421289189864E+03   -0.83476E-02   -0.10307E-01  5952   0.130E+00    0.240E+00
DAV:  18    -0.421295298491E+03   -0.61086E-02   -0.14563E-01  6000   0.143E+00    0.271E+00
DAV:  19    -0.421277069678E+03    0.18229E-01   -0.98760E-02  5952   0.115E+00    0.104E+00
DAV:  20    -0.421274896585E+03    0.21731E-02   -0.17720E-02  6240   0.478E-01    0.591E-01
DAV:  21    -0.421275801918E+03   -0.90533E-03   -0.10342E-02  5904   0.411E-01    0.695E-01
DAV:  22    -0.421275083517E+03    0.71840E-03   -0.94604E-03  5952   0.381E-01    0.503E-01
DAV:  23    -0.421274728783E+03    0.35473E-03   -0.27477E-03  5904   0.201E-01    0.341E-01
DAV:  24    -0.421274946802E+03   -0.21802E-03   -0.17485E-03  5856   0.170E-01    0.360E-01
DAV:  25    -0.421275112526E+03   -0.16572E-03   -0.27180E-03  5712   0.185E-01    0.307E-01
DAV:  26    -0.421275013190E+03    0.99336E-04   -0.12234E-03  5760   0.138E-01    0.205E-01
DAV:  27    -0.421275091809E+03   -0.78619E-04   -0.43789E-04  5808   0.893E-02    0.199E-01
DAV:  28    -0.421275124939E+03   -0.33130E-04   -0.42920E-04  5712   0.824E-02    0.981E-02
DAV:  29    -0.421275141559E+03   -0.16620E-04   -0.15587E-04  6432   0.498E-02    0.657E-02
DAV:  30    -0.421275223086E+03   -0.81527E-04   -0.19197E-04  5712   0.494E-02    0.103E-01
DAV:  31    -0.421275310628E+03   -0.87543E-04   -0.17243E-04  5712   0.470E-02    0.541E-02
DAV:  32    -0.421275326511E+03   -0.15883E-04   -0.38181E-05  5856   0.264E-02    0.299E-02
DAV:  33    -0.421275374328E+03   -0.47817E-04   -0.22830E-05  5520   0.215E-02    0.458E-02
DAV:  34    -0.421275466812E+03   -0.92484E-04   -0.28579E-05  5760   0.214E-02    0.303E-02
DAV:  35    -0.421275491854E+03   -0.25043E-04   -0.13302E-05  5568   0.159E-02    0.293E-02
DAV:  36    -0.421275587504E+03   -0.95650E-04   -0.22110E-05  5568   0.183E-02    0.321E-02
DAV:  37    -0.421275627798E+03   -0.40295E-04   -0.16631E-05  5568   0.178E-02    0.138E-02
DAV:  38    -0.421275642381E+03   -0.14583E-04   -0.47074E-06  4416   0.971E-03    0.146E-02
DAV:  39    -0.421275693149E+03   -0.50768E-04   -0.79258E-06  5472   0.985E-03    0.157E-02
DAV:  40    -0.421275706754E+03   -0.13604E-04   -0.43420E-06  4272   0.905E-03    0.829E-03
DAV:  41    -0.421275725622E+03   -0.18868E-04   -0.41630E-06  4512   0.836E-03    0.160E-02
DAV:  42    -0.421275763518E+03   -0.37896E-04   -0.67983E-06  5280   0.826E-03    0.820E-03
[...]
DAV:  43    -0.421869510674E+03   -0.24043E-05   -0.76341E-07  3648   0.369E-03    0.747E-03
DAV:  44    -0.421869521622E+03   -0.10948E-04   -0.14383E-06  3888   0.445E-03    0.683E-03
DAV:  45    -0.421869525820E+03   -0.41980E-05   -0.85294E-07  3648   0.393E-03    0.560E-03
DAV:  46    -0.421869529217E+03   -0.33969E-05   -0.52006E-07  3552   0.308E-03    0.616E-03
DAV:  47    -0.421869536937E+03   -0.77203E-05   -0.72590E-07  3840   0.316E-03    0.346E-03
DAV:  48    -0.421869537946E+03   -0.10093E-05   -0.24352E-07  3648   0.199E-03    0.192E-03
DAV:  49    -0.421869540190E+03   -0.22436E-05   -0.18401E-07  3552   0.179E-03    0.324E-03
DAV:  50    -0.421869542980E+03   -0.27897E-05   -0.19216E-07  3600   0.182E-03    0.148E-03
DAV:  51    -0.421869543589E+03   -0.60906E-06   -0.59113E-08  3408   0.102E-03
  62 F= -.42186888E+03 E0= -.42172930E+03  d E =-.167205E+00
       N       E                     dE             d eps       ncg     rms          rms(c)
DAV:   1    -0.421878959843E+03   -0.94169E-02   -0.11146E+00  5280   0.136E+00    0.264E-01
DAV:   2    -0.421885252243E+03   -0.62924E-02   -0.41894E-02  6624   0.591E-01    0.127E+00
DAV:   3    -0.421882160396E+03    0.30918E-02   -0.34615E-02  6480   0.661E-01    0.722E-01
DAV:   4    -0.421890617359E+03   -0.84570E-02   -0.57371E-02  6096   0.727E-01    0.214E+00
DAV:   5    -0.421889943948E+03    0.67341E-03   -0.11865E-01  6144   0.833E-01    0.208E+00
DAV:   6    -0.421882206244E+03    0.77377E-02   -0.48952E-02  7104   0.619E-01    0.691E-01
DAV:   7    -0.421881313402E+03    0.89284E-03   -0.89826E-03  6720   0.332E-01    0.376E-01
DAV:   8    -0.421882111722E+03   -0.79832E-03   -0.63402E-03  6144   0.321E-01    0.603E-01
DAV:   9    -0.421881474432E+03    0.63729E-03   -0.62244E-03  6480   0.310E-01    0.405E-01
DAV:  10    -0.421881122229E+03    0.35220E-03   -0.27542E-03  6720   0.211E-01    0.201E-01
DAV:  11    -0.421881393658E+03   -0.27143E-03   -0.21799E-03  5760   0.191E-01    0.335E-01
DAV:  12    -0.421881324689E+03    0.68968E-04   -0.24235E-03  6192   0.190E-01    0.294E-01
DAV:  13    -0.421881067520E+03    0.25717E-03   -0.10539E-03  6096   0.137E-01    0.831E-02
DAV:  14    -0.421881081020E+03   -0.13500E-04   -0.16330E-04  7440   0.551E-02    0.747E-02
DAV:  15    -0.421881122066E+03   -0.41046E-04   -0.28872E-04  7008   0.581E-02    0.146E-01
DAV:  16    -0.421881080921E+03    0.41146E-04   -0.27998E-04  6000   0.538E-02    0.673E-02
DAV:  17    -0.421881073422E+03    0.74989E-05   -0.58647E-05  5856   0.288E-02    0.293E-02
DAV:  18    -0.421881075923E+03   -0.25013E-05   -0.19459E-05  3840   0.172E-02    0.308E-02
DAV:  19    -0.421881078810E+03   -0.28876E-05   -0.25996E-05  3888   0.194E-02    0.343E-02
DAV:  20    -0.421881076837E+03    0.19739E-05   -0.16907E-05  4800   0.170E-02    0.166E-02
DAV:  21    -0.421881077861E+03   -0.10247E-05   -0.36468E-06  3408   0.780E-03    0.144E-02
DAV:  22    -0.421881080254E+03   -0.23931E-05   -0.54707E-06  3600   0.896E-03    0.183E-02
DAV:  23    -0.421881081326E+03   -0.10720E-05   -0.56519E-06  3504   0.855E-03    0.105E-02
DAV:  24    -0.421881081911E+03   -0.58468E-06   -0.14449E-06  3504   0.463E-03
  63 F= -.42188047E+03 E0= -.42174088E+03  d E =-.178798E+00
       N       E                     dE             d eps       ncg     rms          rms(c)
DAV:   1    -0.421884895050E+03   -0.38137E-02   -0.27794E-01  5280   0.677E-01    0.132E-01
DAV:   2    -0.421886683709E+03   -0.17887E-02   -0.11464E-02  6192   0.304E-01    0.738E-01
DAV:   3    -0.421886613239E+03    0.70470E-04   -0.17496E-02  6192   0.363E-01    0.839E-01
DAV:   4    -0.421886230091E+03    0.38315E-03   -0.16789E-02  5808   0.334E-01    0.638E-01
DAV:   5    -0.421886621936E+03   -0.39185E-03   -0.11579E-02  5952   0.339E-01    0.680E-01
DAV:   6    -0.421885645869E+03    0.97607E-03   -0.70014E-03  6912   0.282E-01    0.360E-01
DAV:   7    -0.421885445377E+03    0.20049E-03   -0.20752E-03  6528   0.158E-01    0.178E-01
DAV:   8    -0.421885604878E+03   -0.15950E-03   -0.12897E-03  6000   0.145E-01    0.274E-01
DAV:   9    -0.421885495181E+03    0.10970E-03   -0.13472E-03  6624   0.143E-01    0.198E-01
DAV:  10    -0.421885411784E+03    0.83397E-04   -0.68769E-04  6576   0.105E-01    0.959E-02
DAV:  11    -0.421885492242E+03   -0.80458E-04   -0.58288E-04  5808   0.975E-02    0.176E-01
DAV:  12    -0.421885476460E+03    0.15781E-04   -0.64849E-04  5952   0.968E-02    0.158E-01
DAV:  13    -0.421885405684E+03    0.70777E-04   -0.29891E-04  6000   0.690E-02    0.539E-02
DAV:  14    -0.421885409900E+03   -0.42165E-05   -0.59249E-05  6864   0.255E-02    0.401E-02
DAV:  15    -0.421885412852E+03   -0.29519E-05   -0.42503E-05  5232   0.245E-02    0.410E-02
DAV:  16    -0.421885413139E+03   -0.28698E-06   -0.34421E-05  5184   0.228E-02    0.345E-02
DAV:  17    -0.421885411222E+03    0.19165E-05   -0.15133E-05  3360   0.150E-02    0.198E-02
DAV:  18    -0.421885412153E+03   -0.93016E-06   -0.46962E-06  3312   0.833E-03
  64 F= -.42188485E+03 E0= -.42174525E+03  d E =-.183173E+00
       N       E                     dE             d eps       ncg     rms          rms(c)
DAV:   1    -0.421887114728E+03   -0.17035E-02   -0.69420E-02  5280   0.339E-01    0.677E-02
DAV:   2    -0.421887754150E+03   -0.63942E-03   -0.37331E-03  6816   0.186E-01    0.466E-01
DAV:   3    -0.421887645230E+03    0.10892E-03   -0.63616E-03  6192   0.210E-01    0.489E-01
DAV:   4    -0.421887374715E+03    0.27052E-03   -0.44398E-03  5760   0.177E-01    0.265E-01
DAV:   5    -0.421887532118E+03   -0.15740E-03   -0.25227E-03  5904   0.167E-01    0.337E-01
DAV:   6    -0.421887324963E+03    0.20716E-03   -0.18909E-03  6720   0.147E-01    0.211E-01
DAV:   7    -0.421887254677E+03    0.70286E-04   -0.73150E-04  7008   0.933E-02    0.103E-01
DAV:   8    -0.421887271214E+03   -0.16537E-04   -0.33645E-04  6096   0.716E-02    0.113E-01
DAV:   9    -0.421887276317E+03   -0.51025E-05   -0.29364E-04  6480   0.698E-02    0.116E-01
DAV:  10    -0.421887244381E+03    0.31936E-04   -0.21232E-04  6864   0.582E-02    0.551E-02
DAV:  11    -0.421887252311E+03   -0.79301E-05   -0.11109E-04  6144   0.441E-02    0.609E-02
DAV:  12    -0.421887277008E+03   -0.24697E-04   -0.18506E-04  6864   0.517E-02    0.106E-01
DAV:  13    -0.421887245444E+03    0.31564E-04   -0.13077E-04  5760   0.452E-02    0.375E-02
DAV:  14    -0.421887246583E+03   -0.11397E-05   -0.22988E-05  4704   0.157E-02    0.177E-02
DAV:  15    -0.421887247884E+03   -0.13001E-05   -0.10373E-05  3360   0.119E-02    0.202E-02
DAV:  16    -0.421887250082E+03   -0.21989E-05   -0.11732E-05  3408   0.126E-02    0.243E-02
DAV:  17    -0.421887249158E+03    0.92476E-06   -0.72812E-06  3456   0.101E-02
  65 F= -.42188672E+03 E0= -.42174712E+03  d E =-.185045E+00
       N       E                     dE             d eps       ncg     rms          rms(c)
DAV:   1    -0.421888055003E+03   -0.80492E-03   -0.17343E-02  5280   0.169E-01    0.340E-02
DAV:   2    -0.421888390753E+03   -0.33575E-03   -0.17743E-03  6720   0.114E-01    0.393E-01
DAV:   3    -0.421888157406E+03    0.23335E-03   -0.24716E-03  6336   0.123E-01    0.197E-01
DAV:   4    -0.421888109065E+03    0.48340E-04   -0.79576E-04  5712   0.845E-02    0.115E-01
DAV:   5    -0.421888157628E+03   -0.48563E-04   -0.52907E-04  6288   0.825E-02    0.163E-01
DAV:   6    -0.421888099199E+03    0.58429E-04   -0.44301E-04  7008   0.723E-02    0.987E-02
DAV:   7    -0.421888086507E+03    0.12692E-04   -0.14609E-04  6384   0.414E-02    0.385E-02
DAV:   8    -0.421888101196E+03   -0.14690E-04   -0.81410E-05  5856   0.364E-02    0.718E-02
DAV:   9    -0.421888092728E+03    0.84683E-05   -0.92764E-05  6480   0.363E-02    0.506E-02
DAV:  10    -0.421888088496E+03    0.42323E-05   -0.44669E-05  5856   0.266E-02    0.239E-02
DAV:  11    -0.421888094966E+03   -0.64707E-05   -0.36255E-05  4848   0.251E-02    0.432E-02
DAV:  12    -0.421888094334E+03    0.63250E-06   -0.40554E-05  4128   0.240E-02    0.377E-02
DAV:  13    -0.421888090755E+03    0.35793E-05   -0.19060E-05  3312   0.164E-02    0.134E-02
DAV:  14    -0.421888091417E+03   -0.66272E-06   -0.36215E-06  3216   0.639E-03
  66 F= -.42188758E+03 E0= -.42174798E+03  d E =-.185907E+00
       N       E                     dE             d eps       ncg     rms          rms(c)
DAV:   1    -0.421888482105E+03   -0.39135E-03   -0.43292E-03  5280   0.848E-02    0.195E-02
DAV:   2    -0.421888587964E+03   -0.10586E-03   -0.47090E-04  7296   0.761E-02    0.196E-01
DAV:   3    -0.421888506210E+03    0.81755E-04   -0.62001E-04  5760   0.770E-02    0.114E-01
DAV:   4    -0.421888506909E+03   -0.69958E-06   -0.35108E-04  5904   0.474E-02    0.102E-01
DAV:   5    -0.421888501801E+03    0.51084E-05   -0.21977E-04  5712   0.442E-02    0.720E-02
DAV:   6    -0.421888503028E+03   -0.12273E-05   -0.12420E-04  6192   0.388E-02    0.750E-02
DAV:   7    -0.421888490742E+03    0.12287E-04   -0.74173E-05  6624   0.310E-02    0.306E-02
DAV:   8    -0.421888491164E+03   -0.42275E-06   -0.17925E-05  3600   0.170E-02    0.208E-02
DAV:   9    -0.421888493758E+03   -0.25941E-05   -0.13741E-05  3744   0.160E-02    0.270E-02
DAV:  10    -0.421888493093E+03    0.66565E-06   -0.17688E-05  4848   0.167E-02    0.224E-02
DAV:  11    -0.421888492746E+03    0.34692E-06   -0.10257E-05  3120   0.125E-02    0.153E-02
DAV:  12    -0.421888495370E+03   -0.26242E-05   -0.12889E-05  3312   0.132E-02    0.305E-02
DAV:  13    -0.421888493961E+03    0.14090E-05   -0.14295E-05  3456   0.126E-02    0.173E-02
DAV:  14    -0.421888493626E+03    0.33564E-06   -0.37778E-06  3024   0.711E-03
  67 F= -.42188800E+03 E0= -.42174840E+03  d E =-.186324E+00
       N       E                     dE             d eps       ncg     rms          rms(c)
DAV:   1    -0.421888686080E+03   -0.19212E-03   -0.10807E-03  5376   0.424E-02    0.978E-03
DAV:   2    -0.421888731102E+03   -0.45022E-04   -0.20149E-04  7248   0.446E-02    0.139E-01
DAV:   3    -0.421888701133E+03    0.29970E-04   -0.34792E-04  5856   0.473E-02    0.931E-02
DAV:   4    -0.421888688533E+03    0.12600E-04   -0.11354E-04  5376   0.295E-02    0.264E-02
DAV:   5    -0.421888692987E+03   -0.44539E-05   -0.37423E-05  4272   0.217E-02    0.450E-02
DAV:   6    -0.421888691109E+03    0.18781E-05   -0.42456E-05  4032   0.212E-02    0.362E-02
DAV:   7    -0.421888688606E+03    0.25024E-05   -0.17049E-05  4080   0.157E-02    0.143E-02
DAV:   8    -0.421888689287E+03   -0.68069E-06   -0.55252E-06  3216   0.877E-03
  68 F= -.42188820E+03 E0= -.42174860E+03  d E =-.186525E+00
       N       E                     dE             d eps       ncg     rms          rms(c)
DAV:   1    -0.421888785745E+03   -0.97139E-04   -0.27384E-04  5424   0.234E-02    0.163E-02
DAV:   2    -0.421888952035E+03   -0.16629E-03   -0.58386E-04  6240   0.101E-01    0.237E-01
DAV:   3    -0.421888781312E+03    0.17072E-03   -0.69803E-04  5856   0.965E-02    0.770E-02
DAV:   4    -0.421888794839E+03   -0.13527E-04   -0.15833E-04  5472   0.353E-02    0.804E-02
DAV:   5    -0.421888786517E+03    0.83222E-05   -0.87511E-05  3840   0.243E-02    0.245E-02
DAV:   6    -0.421888788205E+03   -0.16884E-05   -0.21218E-05  3744   0.174E-02    0.313E-02
DAV:   7    -0.421888788663E+03   -0.45801E-06   -0.26113E-05  3696   0.170E-02    0.331E-02
DAV:   8    -0.421888785830E+03    0.28330E-05   -0.14810E-05  3696   0.140E-02    0.124E-02
DAV:   9    -0.421888786409E+03   -0.57858E-06   -0.30158E-06  3264   0.723E-03
  69 F= -.42188830E+03 E0= -.42174869E+03  d E =-.186627E+00
       N       E                     dE             d eps       ncg     rms          rms(c)
DAV:   1    -0.421888834703E+03   -0.48873E-04   -0.69465E-05  5472   0.126E-02    0.120E-02
DAV:   2    -0.421888942632E+03   -0.10793E-03   -0.37668E-04  5952   0.770E-02    0.202E-01
DAV:   3    -0.421888879150E+03    0.63483E-04   -0.77656E-04  5808   0.802E-02    0.169E-01
DAV:   4    -0.421888834963E+03    0.44186E-04   -0.31925E-04  5568   0.453E-02    0.357E-02
DAV:   5    -0.421888835133E+03   -0.16969E-06   -0.28127E-05  3744   0.184E-02    0.225E-02
DAV:   6    -0.421888836899E+03   -0.17656E-05   -0.20098E-05  3648   0.160E-02    0.290E-02
DAV:   7    -0.421888836415E+03    0.48394E-06   -0.18516E-05  3456   0.154E-02    0.252E-02
DAV:   8    -0.421888834990E+03    0.14246E-05   -0.92572E-06  3024   0.116E-02    0.951E-03
DAV:   9    -0.421888835178E+03   -0.18804E-06   -0.20145E-06  3120   0.531E-03
  70 F= -.42188835E+03 E0= -.42174875E+03  d E =-.186680E+00
       N       E                     dE             d eps       ncg     rms          rms(c)
DAV:   1    -0.421888859217E+03   -0.24227E-04   -0.18018E-05  5568   0.715E-03    0.753E-03
DAV:   2    -0.421888906040E+03   -0.46823E-04   -0.18934E-04  5952   0.497E-02    0.138E-01
DAV:   3    -0.421888877875E+03    0.28165E-04   -0.39292E-04  5760   0.520E-02    0.112E-01
DAV:   4    -0.421888860214E+03    0.17661E-04   -0.14272E-04  3552   0.312E-02    0.288E-02
DAV:   5    -0.421888859440E+03    0.77460E-06   -0.15560E-05  3504   0.137E-02    0.145E-02
DAV:   6    -0.421888860313E+03   -0.87386E-06   -0.79476E-06  3216   0.108E-02
  71 F= -.42188838E+03 E0= -.42174878E+03  d E =-.186707E+00
       N       E                     dE             d eps       ncg     rms          rms(c)
DAV:   1    -0.421888872160E+03   -0.12720E-04   -0.12641E-05  5616   0.111E-02    0.181E-02
DAV:   2    -0.421889175986E+03   -0.30383E-03   -0.11769E-03  5760   0.126E-01    0.340E-01
DAV:   3    -0.421888888601E+03    0.28739E-03   -0.15623E-03  5808   0.123E-01    0.150E-01
DAV:   4    -0.421888881470E+03    0.71311E-05   -0.35932E-04  5664   0.470E-02    0.720E-02
DAV:   5    -0.421888871864E+03    0.96051E-05   -0.71452E-05  5568   0.288E-02    0.262E-02
DAV:   6    -0.421888873881E+03   -0.20162E-05   -0.24924E-05  4176   0.181E-02    0.312E-02
DAV:   7    -0.421888875105E+03   -0.12241E-05   -0.30577E-05  3552   0.192E-02    0.357E-02
DAV:   8    -0.421888871079E+03    0.40256E-05   -0.14812E-05  3648   0.159E-02    0.112E-02
DAV:   9    -0.421888871752E+03   -0.67266E-06   -0.17973E-06  3264   0.538E-03
  72 F= -.42188840E+03 E0= -.42174879E+03  d E =-.186721E+00
       N       E                     dE             d eps       ncg     rms          rms(c)
DAV:   1    -0.420643395030E+03    0.12455E+01   -0.44116E+02  5280   0.272E+01    0.482E+00
DAV:   2    -0.425801928349E+03   -0.51585E+01   -0.33816E+01  6672   0.185E+01    0.295E+01
DAV:   3    -0.425549596505E+03    0.25233E+00   -0.20663E+01  7056   0.198E+01    0.393E+01
DAV:   4    -0.422292097143E+03    0.32575E+01   -0.18943E+01  6384   0.126E+01    0.133E+01
DAV:   5    -0.421978450888E+03    0.31365E+00   -0.36848E+00  6528   0.794E+00    0.958E+00
DAV:   6    -0.422383666726E+03   -0.40522E+00   -0.44954E+00  7872   0.785E+00    0.157E+01
DAV:   7    -0.422068849207E+03    0.31482E+00   -0.48588E+00  7296   0.757E+00    0.120E+01
DAV:   8    -0.421957238459E+03    0.11161E+00   -0.30307E+00  7296   0.606E+00    0.886E+00
DAV:   9    -0.422190128587E+03   -0.23289E+00   -0.28851E+00  6048   0.657E+00    0.127E+01
DAV:  10    -0.421846677550E+03    0.34345E+00   -0.26237E+00  6288   0.607E+00    0.699E+00
DAV:  11    -0.421746041887E+03    0.10064E+00   -0.93220E-01  7200   0.375E+00    0.392E+00
DAV:  12    -0.421823422890E+03   -0.77381E-01   -0.84116E-01  6144   0.344E+00    0.650E+00
DAV:  13    -0.421753685256E+03    0.69738E-01   -0.77857E-01  6048   0.334E+00    0.418E+00
DAV:  14    -0.421731977627E+03    0.21708E-01   -0.38540E-01  6960   0.229E+00    0.337E+00
DAV:  15    -0.110490198077E+04   -0.68317E+03   -0.12577E+02  6816   0.210E+00    0.550E+00
DAV:  16    -0.648709472770E+03    0.45619E+03   -0.18609E+02  6048   0.554E+00    0.642E+00
DAV:  17    -0.832892412410E+04   -0.76802E+04   -0.25779E+02  6480   0.946E+00    0.583E+00
DAV:  18    -0.116783677172E+04    0.71611E+04   -0.44082E+02  6336   0.164E+01    0.107E+01
DAV:  19    -0.956089808737E+03    0.21175E+03   -0.26597E+02  6528   0.181E+01    0.159E+01
DAV:  20    -0.928093045836E+03    0.27997E+02   -0.25037E+02  6384   0.190E+01    0.158E+01
DAV:  21    -0.859548548273E+03    0.68544E+02   -0.26458E+02  6240   0.197E+01    0.188E+01
DAV:  22    -0.826391354603E+03    0.33157E+02   -0.27463E+02  6384   0.194E+01    0.200E+01
DAV:  23    -0.838992356948E+03   -0.12601E+02   -0.30317E+02  6432   0.196E+01    0.208E+01
DAV:  24    -0.832083162797E+03    0.69092E+01   -0.27812E+02  6528   0.203E+01    0.230E+01
DAV:  25    -0.851099032458E+03   -0.19016E+02   -0.27978E+02  6336   0.197E+01    0.225E+01
DAV:  26    -0.837322717778E+03    0.13776E+02   -0.26917E+02  6384   0.195E+01    0.254E+01
DAV:  27    -0.888580033613E+03   -0.51257E+02   -0.37696E+02  6288   0.181E+01    0.231E+01
DAV:  28    -0.890592719913E+03   -0.20127E+01   -0.35853E+02  6096   0.178E+01    0.252E+01
DAV:  29    -0.943367015674E+03   -0.52774E+02   -0.34916E+02  6336   0.184E+01    0.233E+01
DAV:  30    -0.869250169204E+03    0.74117E+02   -0.35919E+02  6288   0.177E+01    0.242E+01
DAV:  31    -0.889282810812E+03   -0.20033E+02   -0.35662E+02  6384   0.178E+01    0.262E+01
DAV:  32    -0.951643366124E+03   -0.62361E+02   -0.41456E+02  6192   0.173E+01    0.248E+01
DAV:  33    -0.937314508979E+03    0.14329E+02   -0.41729E+02  6096   0.174E+01    0.242E+01
DAV:  34    -0.953948345515E+03   -0.16634E+02   -0.41262E+02  6336   0.172E+01    0.240E+01
DAV:  35    -0.927697414744E+03    0.26251E+02   -0.40294E+02  6240   0.176E+01    0.257E+01
DAV:  36    -0.931286166456E+03   -0.35888E+01   -0.43938E+02  6192   0.174E+01    0.250E+01
DAV:  37    -0.944249258064E+03   -0.12963E+02   -0.42875E+02  6144   0.171E+01    0.255E+01
DAV:  38    -0.940287754747E+03    0.39615E+01   -0.44135E+02  6240   0.175E+01    0.251E+01
DAV:  39    -0.991596773068E+03   -0.51309E+02   -0.44158E+02  6096   0.171E+01    0.253E+01
DAV:  40    -0.975260298797E+03    0.16336E+02   -0.43702E+02  6144   0.179E+01    0.260E+01
DAV:  41    -0.989897629666E+03   -0.14637E+02   -0.42644E+02  6144   0.176E+01    0.257E+01
DAV:  42    -0.108529383843E+04   -0.95396E+02   -0.43518E+02  6240   0.177E+01    0.273E+01
DAV:  43    -0.103157889161E+04    0.53715E+02   -0.47863E+02  6192   0.173E+01    0.273E+01
DAV:  44    -0.101618695213E+04    0.15392E+02   -0.48604E+02  6096   0.181E+01    0.285E+01
DAV:  45    -0.101681520657E+04   -0.62825E+00   -0.48776E+02  6288   0.190E+01    0.269E+01
DAV:  46    -0.102875711176E+04   -0.11942E+02   -0.49682E+02  6240   0.182E+01    0.257E+01
DAV:  47    -0.102522718241E+04    0.35299E+01   -0.41561E+02  7584   0.208E+01    0.304E+01
DAV:  48    -0.103137624604E+04   -0.61491E+01   -0.46868E+02  7056   0.206E+01    0.271E+01
DAV:  49    -0.101822245220E+04    0.13154E+02   -0.44521E+02  6720   0.189E+01    0.267E+01
DAV:  50    -0.107159602713E+04   -0.53374E+02   -0.49435E+02  6432   0.180E+01    0.253E+01
DAV:  51    -0.102513044419E+04    0.46466E+02   -0.42152E+02  6096   0.190E+01    0.272E+01
DAV:  52    -0.104859793804E+04   -0.23467E+02   -0.50344E+02  6576   0.207E+01    0.299E+01
DAV:  53    -0.101027065284E+04    0.38327E+02   -0.47569E+02  6432   0.211E+01    0.282E+01
DAV:  54    -0.107125179494E+04   -0.60981E+02   -0.50792E+02  6672   0.182E+01    0.268E+01
DAV:  55    -0.101856442958E+04    0.52687E+02   -0.49107E+02  6096   0.183E+01    0.268E+01
DAV:  56    -0.105880683311E+04   -0.40242E+02   -0.47243E+02  6384   0.185E+01    0.260E+01
DAV:  57    -0.102035421842E+04    0.38453E+02   -0.46148E+02  6768   0.293E+01    0.545E+01
DAV:  58    -0.101719589459E+04    0.31583E+01   -0.48892E+02  6528   0.290E+01    0.307E+01
DAV:  59    -0.999741058200E+03    0.17455E+02   -0.49336E+02  6576   0.223E+01    0.293E+01
DAV:  60    -0.100635667808E+04   -0.66156E+01   -0.52907E+02  6864   0.202E+01
  73 F= 0.73861765E+05 E0= 0.73861807E+05  d E =0.742835E+05
