       N       E                     dE             d eps       ncg     rms          rms(c)
DAV:   1     0.614902129019E+04    0.61490E+04   -0.31934E+05  5120   0.156E+03
DAV:   2     0.154688412956E+03   -0.59943E+04   -0.57156E+04  5120   0.372E+02
DAV:   3    -0.514440338512E+03   -0.66913E+03   -0.58710E+03  6624   0.160E+02
DAV:   4    -0.559405223991E+03   -0.44965E+02   -0.44288E+02  5600   0.394E+01
DAV:   5    -0.560586203667E+03   -0.11810E+01   -0.11760E+01  6400   0.533E+00    0.859E+01
DAV:   6    -0.602411834769E+03   -0.41826E+02   -0.93045E+02  5792   0.154E+02    0.127E+02
DAV:   7    -0.616277342321E+03   -0.13866E+02   -0.54360E+02  5760   0.178E+02    0.127E+02
DAV:   8    -0.915916538128E+03   -0.29964E+03   -0.44961E+02  6016   0.185E+02    0.220E+02
DAV:   9    -0.549951053249E+03    0.36597E+03   -0.19394E+02  7872   0.734E+01    0.106E+02
DAV:  10    -0.506815642550E+03    0.43135E+02   -0.14622E+02  6528   0.711E+01    0.789E+01
DAV:  11    -0.548842661449E+03   -0.42027E+02   -0.21275E+02  5600   0.105E+02    0.115E+02
DAV:  12    -0.540265953298E+03    0.85767E+01   -0.11021E+02  5536   0.778E+01    0.116E+02
DAV:  13    -0.512030949709E+03    0.28235E+02   -0.65450E+01  5600   0.593E+01    0.970E+01
DAV:  14    -0.503197891098E+03    0.88331E+01   -0.81303E+01  6208   0.360E+01    0.822E+01
DAV:  15    -0.501471569696E+03    0.17263E+01   -0.86093E+01  5600   0.477E+01    0.769E+01
DAV:  16    -0.495165712290E+03    0.63059E+01   -0.39713E+01  5728   0.439E+01    0.676E+01
DAV:  17    -0.487047838752E+03    0.81179E+01   -0.31612E+01  5920   0.345E+01    0.538E+01
DAV:  18    -0.482033972332E+03    0.50139E+01   -0.28676E+01  5600   0.276E+01    0.461E+01
DAV:  19    -0.482136343104E+03   -0.10237E+00   -0.25291E+01  5664   0.265E+01    0.467E+01
DAV:  20    -0.479731439544E+03    0.24049E+01   -0.25050E+01  5664   0.245E+01    0.321E+01
DAV:  21    -0.478073835492E+03    0.16576E+01   -0.12381E+01  5760   0.178E+01    0.258E+01
DAV:  22    -0.477350243019E+03    0.72359E+00   -0.48686E+00  6048   0.106E+01    0.223E+01
DAV:  23    -0.476938178903E+03    0.41206E+00   -0.54035E+00  5600   0.999E+00    0.196E+01
DAV:  24    -0.476726932677E+03    0.21125E+00   -0.42010E+00  5664   0.944E+00    0.190E+01
DAV:  25    -0.476393629768E+03    0.33330E+00   -0.21813E+00  5728   0.684E+00    0.159E+01
DAV:  26    -0.476467554059E+03   -0.73924E-01   -0.23428E+00  5696   0.741E+00    0.164E+01
DAV:  27    -0.476264467048E+03    0.20309E+00   -0.34244E+00  5632   0.863E+00    0.136E+01
DAV:  28    -0.476487042721E+03   -0.22258E+00   -0.27900E+00  5824   0.813E+00    0.176E+01
DAV:  29    -0.476585892502E+03   -0.98850E-01   -0.19164E+00  6336   0.712E+00    0.187E+01
DAV:  30    -0.476012782826E+03    0.57311E+00   -0.19550E+00  5760   0.623E+00    0.101E+01
DAV:  31    -0.475827015557E+03    0.18577E+00   -0.80776E-01  5632   0.496E+00    0.750E+00
DAV:  32    -0.475879542035E+03   -0.52526E-01   -0.81380E-01  5920   0.453E+00    0.797E+00
DAV:  33    -0.475858856155E+03    0.20686E-01   -0.89082E-01  5760   0.473E+00    0.736E+00
DAV:  34    -0.475766941464E+03    0.91915E-01   -0.63867E-01  5792   0.413E+00    0.549E+00
DAV:  35    -0.475760584186E+03    0.63573E-02   -0.26524E-01  6016   0.270E+00    0.498E+00
DAV:  36    -0.475746592170E+03    0.13992E-01   -0.36986E-01  5888   0.288E+00    0.523E+00
DAV:  37    -0.475705513836E+03    0.41078E-01   -0.17978E-01  6112   0.196E+00    0.354E+00
DAV:  38    -0.475709174319E+03   -0.36605E-02   -0.66591E-02  6176   0.125E+00    0.408E+00
DAV:  39    -0.475692862472E+03    0.16312E-01   -0.48011E-02  5792   0.108E+00    0.276E+00
DAV:  40    -0.475687033601E+03    0.58289E-02   -0.19471E-02  5888   0.783E-01    0.230E+00
DAV:  41    -0.475687192217E+03   -0.15862E-03   -0.11397E-02  6048   0.583E-01    0.232E+00
DAV:  42    -0.475681068692E+03    0.61235E-02   -0.90292E-03  6112   0.479E-01    0.179E+00
DAV:  43    -0.475680757493E+03    0.31120E-03   -0.58246E-03  5984   0.416E-01    0.176E+00
DAV:  44    -0.475678758797E+03    0.19987E-02   -0.12488E-02  6208   0.560E-01    0.133E+00
DAV:  45    -0.475674640919E+03    0.41179E-02   -0.88149E-03  6112   0.517E-01    0.812E-01
DAV:  46    -0.475674616471E+03    0.24448E-04   -0.34718E-03  6912   0.306E-01    0.788E-01
DAV:  47    -0.475674743934E+03   -0.12746E-03   -0.47804E-03  7168   0.335E-01    0.941E-01
DAV:  48    -0.475673959082E+03    0.78485E-03   -0.20982E-03  6048   0.245E-01    0.702E-01
DAV:  49    -0.475673951677E+03    0.74055E-05   -0.12653E-03  6944   0.190E-01    0.640E-01
DAV:  50    -0.475673623893E+03    0.32778E-03   -0.21361E-03  6208   0.223E-01    0.363E-01
DAV:  51    -0.475673500911E+03    0.12298E-03   -0.10296E-03  5856   0.175E-01    0.301E-01
DAV:  52    -0.475673954008E+03   -0.45310E-03   -0.10115E-03  6304   0.168E-01    0.300E-01
DAV:  53    -0.475673964045E+03   -0.10037E-04   -0.77979E-04  6112   0.152E-01    0.165E-01
DAV:  54    -0.475674118496E+03   -0.15445E-03   -0.34504E-04  6368   0.102E-01    0.179E-01
DAV:  55    -0.475674381551E+03   -0.26306E-03   -0.28712E-04  6240   0.909E-02    0.150E-01
DAV:  56    -0.475674408152E+03   -0.26601E-04   -0.20883E-04  6080   0.794E-02    0.114E-01
DAV:  57    -0.475674701441E+03   -0.29329E-03   -0.23513E-04  6144   0.839E-02    0.144E-01
DAV:  58    -0.475674965761E+03   -0.26432E-03   -0.19158E-04  5888   0.806E-02    0.823E-02
DAV:  59    -0.475675124304E+03   -0.15854E-03   -0.12304E-04  6272   0.612E-02    0.952E-02
DAV:  60    -0.475675367242E+03   -0.24294E-03   -0.12073E-04  6400   0.577E-02
   1 F= -.47562704E+03 E0= -.47548425E+03  d E =-.475627E+03
       N       E                     dE             d eps       ncg     rms          rms(c)
DAV:   1    -0.475675159312E+03   -0.35008E-04   -0.42284E-02  5216   0.218E-01    0.123E-01
DAV:   2    -0.475694530242E+03   -0.19371E-01   -0.52703E-02  6208   0.926E-01    0.298E+00
DAV:   3    -0.475681560356E+03    0.12970E-01   -0.85365E-02  5984   0.958E-01    0.168E+00
DAV:   4    -0.475675818115E+03    0.57422E-02   -0.16717E-02  5888   0.533E-01    0.362E-01
DAV:   5    -0.475675541194E+03    0.27692E-03   -0.19283E-03  6464   0.223E-01    0.240E-01
DAV:   6    -0.475676101129E+03   -0.55993E-03   -0.23676E-03  6112   0.232E-01    0.483E-01
DAV:   7    -0.475675756856E+03    0.34427E-03   -0.23691E-03  5984   0.215E-01    0.283E-01
DAV:   8    -0.475675580132E+03    0.17672E-03   -0.63536E-04  6080   0.120E-01    0.868E-02
DAV:   9    -0.475675610375E+03   -0.30243E-04   -0.17088E-04  6240   0.690E-02    0.916E-02
DAV:  10    -0.475675740080E+03   -0.12971E-03   -0.23517E-04  6112   0.737E-02    0.148E-01
DAV:  11    -0.475675773173E+03   -0.33093E-04   -0.19800E-04  6112   0.674E-02    0.103E-01
DAV:  12    -0.475675790233E+03   -0.17060E-04   -0.50023E-05  5856   0.341E-02    0.906E-02
DAV:  13    -0.475675881879E+03   -0.91646E-04   -0.67803E-05  5824   0.418E-02    0.835E-02
DAV:  14    -0.475675964195E+03   -0.82316E-04   -0.79921E-05  6016   0.413E-02    0.567E-02
DAV:  15    -0.475675980242E+03   -0.16046E-04   -0.28636E-05  4928   0.237E-02    0.324E-02
DAV:  16    -0.475676003439E+03   -0.23197E-04   -0.13603E-05  3552   0.178E-02    0.359E-02
DAV:  17    -0.475676091555E+03   -0.88116E-04   -0.17635E-05  4544   0.200E-02    0.430E-02
DAV:  18    -0.475676124605E+03   -0.33050E-04   -0.13914E-05  3680   0.181E-02    0.196E-02
DAV:  19    -0.475676154710E+03   -0.30105E-04   -0.51921E-06  3584   0.128E-02    0.181E-02
DAV:  20    -0.475676290684E+03   -0.13597E-03   -0.12617E-05  5312   0.157E-02    0.313E-02
DAV:  21    -0.475676332349E+03   -0.41665E-04   -0.85772E-06  3936   0.140E-02    0.292E-02
DAV:  22    -0.475676353331E+03   -0.20982E-04   -0.48098E-06  3392   0.999E-03    0.285E-02
DAV:  23    -0.475676437529E+03   -0.84198E-04   -0.86950E-06  4768   0.139E-02    0.264E-02
DAV:  24    -0.475676483809E+03   -0.46280E-04   -0.67715E-06  4352   0.133E-02    0.946E-03
DAV:  25    -0.475676492233E+03   -0.84244E-05   -0.19515E-06  3520   0.668E-03    0.109E-02
DAV:  26    -0.475676507967E+03   -0.15734E-04   -0.26928E-06  3520   0.774E-03    0.150E-02
DAV:  27    -0.475676521372E+03   -0.13405E-04   -0.23556E-06  3872   0.720E-03    0.598E-03
DAV:  28    -0.475676522961E+03   -0.15892E-05   -0.56668E-07  3360   0.357E-03    0.376E-03
DAV:  29    -0.475676526496E+03   -0.35348E-05   -0.47117E-07  3296   0.342E-03    0.605E-03
DAV:  30    -0.475676528894E+03   -0.23982E-05   -0.42873E-07  3360   0.330E-03    0.205E-03
DAV:  31    -0.475676529264E+03   -0.36940E-06   -0.10006E-07  2976   0.141E-03
   2 F= -.47562414E+03 E0= -.47548138E+03  d E =0.290607E-02
       N       E                     dE             d eps       ncg     rms          rms(c)
DAV:   1    -0.475676637361E+03   -0.10847E-03   -0.13870E-02  5248   0.117E-01    0.244E-02
DAV:   2    -0.475676684965E+03   -0.47605E-04   -0.33385E-04  7360   0.548E-02    0.107E-01
DAV:   3    -0.475676655445E+03    0.29521E-04   -0.15067E-04  6080   0.580E-02    0.518E-02
DAV:   4    -0.475676719870E+03   -0.64425E-04   -0.26527E-04  6016   0.570E-02    0.193E-01
DAV:   5    -0.475676690050E+03    0.29820E-04   -0.37784E-04  6016   0.673E-02    0.123E-01
DAV:   6    -0.475676665623E+03    0.24427E-04   -0.17350E-04  6144   0.552E-02    0.783E-02
DAV:   7    -0.475676655610E+03    0.10013E-04   -0.76228E-05  5888   0.399E-02    0.449E-02
DAV:   8    -0.475676664854E+03   -0.92444E-05   -0.64960E-05  5856   0.368E-02    0.705E-02
DAV:   9    -0.475676665301E+03   -0.44664E-06   -0.77241E-05  5792   0.396E-02    0.674E-02
DAV:  10    -0.475676652290E+03    0.13011E-04   -0.39310E-05  5760   0.314E-02    0.185E-02
DAV:  11    -0.475676653150E+03   -0.85952E-06   -0.65599E-06  3232   0.139E-02
   3 F= -.47562411E+03 E0= -.47548135E+03  d E =0.293092E-02
       N       E                     dE             d eps       ncg     rms          rms(c)
DAV:   1    -0.475676670879E+03   -0.18588E-04   -0.14543E-02  5120   0.155E-01    0.384E-02
DAV:   2    -0.475677544653E+03   -0.87377E-03   -0.20982E-03  6880   0.225E-01    0.563E-01
DAV:   3    -0.475676932542E+03    0.61211E-03   -0.30636E-03  5920   0.229E-01    0.386E-01
DAV:   4    -0.475676717909E+03    0.21463E-03   -0.11054E-03  6208   0.115E-01    0.117E-01
DAV:   5    -0.475676693979E+03    0.23931E-04   -0.16478E-04  6336   0.665E-02    0.641E-02
DAV:   6    -0.475676724748E+03   -0.30770E-04   -0.15604E-04  6944   0.633E-02    0.119E-01
DAV:   7    -0.475676698736E+03    0.26012E-04   -0.17045E-04  5888   0.601E-02    0.847E-02
DAV:   8    -0.475676686980E+03    0.11756E-04   -0.74806E-05  6048   0.386E-02    0.356E-02
DAV:   9    -0.475676696915E+03   -0.99349E-05   -0.48053E-05  5664   0.350E-02    0.631E-02
DAV:  10    -0.475676696592E+03    0.32273E-06   -0.65122E-05  6016   0.379E-02    0.630E-02
DAV:  11    -0.475676686126E+03    0.10466E-04   -0.35235E-05  5344   0.297E-02    0.230E-02
DAV:  12    -0.475676686460E+03   -0.33392E-06   -0.83370E-06  3296   0.149E-02
   4 F= -.47562403E+03 E0= -.47548127E+03  d E =0.848793E-04
       N       E                     dE             d eps       ncg     rms          rms(c)
DAV:   1    -0.475676692894E+03   -0.67680E-05   -0.10948E-03  5440   0.455E-02    0.297E-02
DAV:   2    -0.475677361103E+03   -0.66821E-03   -0.16278E-03  5984   0.199E-01    0.506E-01
DAV:   3    -0.475676927783E+03    0.43332E-03   -0.26384E-03  5760   0.202E-01    0.363E-01
DAV:   4    -0.475676715872E+03    0.21191E-03   -0.91681E-04  5760   0.105E-01    0.105E-01
DAV:   5    -0.475676694434E+03    0.21438E-04   -0.10688E-04  6432   0.469E-02    0.442E-02
DAV:   6    -0.475676702265E+03   -0.78312E-05   -0.56154E-05  5856   0.359E-02    0.625E-02
DAV:   7    -0.475676701519E+03    0.74605E-06   -0.61127E-05  5728   0.360E-02    0.610E-02
DAV:   8    -0.475676691538E+03    0.99814E-05   -0.31398E-05  5056   0.272E-02    0.169E-02
DAV:   9    -0.475676691981E+03   -0.44364E-06   -0.46158E-06  3168   0.109E-02
   5 F= -.47562399E+03 E0= -.47548124E+03  d E =0.120941E-03
       N       E                     dE             d eps       ncg     rms          rms(c)
DAV:   1    -0.475676714721E+03   -0.23183E-04   -0.58351E-03  5120   0.103E-01    0.259E-02
DAV:   2    -0.475677049642E+03   -0.33492E-03   -0.88035E-04  6240   0.147E-01    0.344E-01
DAV:   3    -0.475676820225E+03    0.22942E-03   -0.12810E-03  6080   0.148E-01    0.242E-01
DAV:   4    -0.475676734322E+03    0.85903E-04   -0.45369E-04  5984   0.748E-02    0.837E-02
DAV:   5    -0.475676723124E+03    0.11198E-04   -0.82010E-05  6784   0.419E-02    0.432E-02
DAV:   6    -0.475676731986E+03   -0.88615E-05   -0.59075E-05  6624   0.368E-02    0.689E-02
DAV:   7    -0.475676729851E+03    0.21349E-05   -0.72312E-05  5760   0.373E-02    0.664E-02
DAV:   8    -0.475676720410E+03    0.94406E-05   -0.41007E-05  5440   0.297E-02    0.260E-02
DAV:   9    -0.475676721816E+03   -0.14058E-05   -0.14313E-05  4224   0.198E-02    0.268E-02
DAV:  10    -0.475676726821E+03   -0.50052E-05   -0.20322E-05  3968   0.237E-02    0.495E-02
DAV:  11    -0.475676719856E+03    0.69652E-05   -0.16421E-05  3200   0.213E-02    0.146E-02
DAV:  12    -0.475676720573E+03   -0.71659E-06   -0.35207E-06  3104   0.981E-03
   6 F= -.47562403E+03 E0= -.47548128E+03  d E =-.374977E-04
       N       E                     dE             d eps       ncg     rms          rms(c)
DAV:   1    -0.475676721974E+03   -0.21175E-05   -0.33020E-05  7040   0.129E-02    0.218E-02
DAV:   2    -0.475677189685E+03   -0.46771E-03   -0.12018E-03  6144   0.154E-01    0.448E-01
DAV:   3    -0.475676756948E+03    0.43274E-03   -0.14090E-03  5952   0.151E-01    0.146E-01
DAV:   4    -0.475676740515E+03    0.16433E-04   -0.25246E-04  6080   0.553E-02    0.101E-01
DAV:   5    -0.475676721317E+03    0.19198E-04   -0.73759E-05  5696   0.361E-02    0.240E-02
DAV:   6    -0.475676726182E+03   -0.48653E-05   -0.24297E-05  5056   0.239E-02    0.442E-02
DAV:   7    -0.475676724039E+03    0.21437E-05   -0.24624E-05  3968   0.233E-02    0.348E-02
DAV:   8    -0.475676720429E+03    0.36098E-05   -0.94107E-06  3168   0.159E-02    0.889E-03
DAV:   9    -0.475676721002E+03   -0.57352E-06   -0.11899E-06  2976   0.512E-03
   7 F= -.47562404E+03 E0= -.47548128E+03  d E =-.467535E-04
       N       E                     dE             d eps       ncg     rms          rms(c)
DAV:   1    -0.475676746182E+03   -0.25753E-04   -0.30384E-03  5120   0.729E-02    0.147E-02
DAV:   2    -0.475676965697E+03   -0.21951E-03   -0.63302E-04  6368   0.981E-02    0.321E-01
DAV:   3    -0.475676799151E+03    0.16655E-03   -0.89924E-04  5824   0.101E-01    0.164E-01
DAV:   4    -0.475676751326E+03    0.47824E-04   -0.18567E-04  5728   0.532E-02    0.461E-02
DAV:   5    -0.475676751357E+03   -0.30675E-07   -0.35864E-05  5568   0.281E-02    0.360E-02
DAV:   6    -0.475676759331E+03   -0.79744E-05   -0.38341E-05  5504   0.308E-02    0.617E-02
DAV:   7    -0.475676749936E+03    0.93954E-05   -0.28443E-05  5632   0.282E-02    0.299E-02
DAV:   8    -0.475676748847E+03    0.10891E-05   -0.81499E-06  3072   0.162E-02    0.130E-02
DAV:   9    -0.475676751023E+03   -0.21755E-05   -0.69889E-06  3232   0.141E-02    0.249E-02
DAV:  10    -0.475676751330E+03   -0.30707E-06   -0.11021E-05  3200   0.150E-02    0.299E-02
DAV:  11    -0.475676749474E+03    0.18559E-05   -0.67814E-06  2816   0.116E-02    0.120E-02
DAV:  12    -0.475676749756E+03   -0.28225E-06   -0.16605E-06  2784   0.632E-03
   8 F= -.47562406E+03 E0= -.47548131E+03  d E =-.222687E-04
       N       E                     dE             d eps       ncg     rms          rms(c)
DAV:   1    -0.475676761159E+03   -0.11685E-04   -0.15277E-02  5120   0.163E-01    0.290E-02
DAV:   2    -0.475677729841E+03   -0.96868E-03   -0.29185E-03  6464   0.196E-01    0.689E-01
DAV:   3    -0.475676915379E+03    0.81446E-03   -0.36158E-03  5760   0.199E-01    0.253E-01
DAV:   4    -0.475676777418E+03    0.13796E-03   -0.43327E-04  5952   0.929E-02    0.668E-02
DAV:   5    -0.475676798061E+03   -0.20643E-04   -0.14480E-04  6976   0.601E-02    0.942E-02
DAV:   6    -0.475676803827E+03   -0.57660E-05   -0.16755E-04  5920   0.604E-02    0.114E-01
DAV:   7    -0.475676779902E+03    0.23925E-04   -0.12241E-04  5888   0.494E-02    0.533E-02
DAV:   8    -0.475676777292E+03    0.26099E-05   -0.35754E-05  5280   0.303E-02    0.325E-02
DAV:   9    -0.475676788232E+03   -0.10940E-04   -0.41169E-05  5376   0.331E-02    0.643E-02
DAV:  10    -0.475676780889E+03    0.73424E-05   -0.43074E-05  5728   0.330E-02    0.440E-02
DAV:  11    -0.475676776326E+03    0.45633E-05   -0.16498E-05  3264   0.214E-02    0.222E-02
DAV:  12    -0.475676778437E+03   -0.21116E-05   -0.71982E-06  3104   0.133E-02    0.258E-02
DAV:  13    -0.475676778252E+03    0.18590E-06   -0.90328E-06  2944   0.137E-02
   9 F= -.47562407E+03 E0= -.47548132E+03  d E =-.280279E-04
       N       E                     dE             d eps       ncg     rms          rms(c)
DAV:   1    -0.475676790659E+03   -0.12221E-04   -0.85169E-04  5120   0.408E-02    0.131E-02
DAV:   2    -0.475676967556E+03   -0.17690E-03   -0.43713E-04  6560   0.920E-02    0.277E-01
DAV:   3    -0.475676822741E+03    0.14481E-03   -0.60445E-04  5760   0.937E-02    0.144E-01
DAV:   4    -0.475676794353E+03    0.28387E-04   -0.15126E-04  5632   0.425E-02    0.391E-02
DAV:   5    -0.475676792624E+03    0.17295E-05   -0.19936E-05  4000   0.219E-02    0.256E-02
DAV:   6    -0.475676795506E+03   -0.28823E-05   -0.17604E-05  3456   0.208E-02    0.391E-02
DAV:   7    -0.475676792277E+03    0.32293E-05   -0.13064E-05  3168   0.192E-02    0.223E-02
DAV:   8    -0.475676791369E+03    0.90786E-06   -0.45999E-06  2880   0.116E-02
  10 F= -.47562408E+03 E0= -.47548132E+03  d E =-.870755E-05
       N       E                     dE             d eps       ncg     rms          rms(c)
DAV:   1    -0.475676822085E+03   -0.29808E-04   -0.76440E-03  5216   0.118E-01    0.223E-02
DAV:   2    -0.475677418822E+03   -0.59674E-03   -0.16382E-03  6560   0.156E-01    0.536E-01
DAV:   3    -0.475676928783E+03    0.49004E-03   -0.22301E-03  5728   0.158E-01    0.217E-01
DAV:   4    -0.475676831200E+03    0.97583E-04   -0.30347E-04  6048   0.762E-02    0.541E-02
DAV:   5    -0.475676835939E+03   -0.47389E-05   -0.65354E-05  6560   0.443E-02    0.569E-02
DAV:   6    -0.475676837918E+03   -0.19798E-05   -0.57735E-05  5888   0.400E-02    0.628E-02
DAV:   7    -0.475676829606E+03    0.83122E-05   -0.41913E-05  5504   0.328E-02    0.335E-02
DAV:   8    -0.475676830130E+03   -0.52385E-06   -0.17918E-05  3264   0.190E-02    0.280E-02
DAV:   9    -0.475676835420E+03   -0.52895E-05   -0.25104E-05  4832   0.240E-02    0.473E-02
DAV:  10    -0.475676831258E+03    0.41611E-05   -0.25615E-05  3904   0.236E-02    0.322E-02
DAV:  11    -0.475676829766E+03    0.14924E-05   -0.85162E-06  3040   0.142E-02    0.175E-02
DAV:  12    -0.475676830415E+03   -0.64909E-06   -0.36212E-06  3040   0.968E-03
  11 F= -.47562411E+03 E0= -.47548137E+03  d E =-.448577E-04
       N       E                     dE             d eps       ncg     rms          rms(c)
DAV:   1    -0.475676847590E+03   -0.17824E-04   -0.30527E-02  5120   0.235E-01    0.395E-02
DAV:   2    -0.475678853193E+03   -0.20056E-02   -0.57838E-03  6976   0.280E-01    0.996E-01
DAV:   3    -0.475677157126E+03    0.16961E-02   -0.72217E-03  5824   0.283E-01    0.356E-01
DAV:   4    -0.475676882892E+03    0.27423E-03   -0.85138E-04  6496   0.125E-01    0.890E-02
DAV:   5    -0.475676923582E+03   -0.40690E-04   -0.28796E-04  6304   0.824E-02    0.139E-01
DAV:   6    -0.475676967508E+03   -0.43926E-04   -0.42362E-04  5952   0.923E-02    0.195E-01
DAV:   7    -0.475676876071E+03    0.91437E-04   -0.25911E-04  5920   0.778E-02    0.570E-02
DAV:   8    -0.475676879407E+03   -0.33358E-05   -0.52327E-05  5504   0.401E-02    0.453E-02
DAV:   9    -0.475676897490E+03   -0.18083E-04   -0.80545E-05  5728   0.455E-02    0.832E-02
DAV:  10    -0.475676882614E+03    0.14876E-04   -0.75536E-05  5824   0.436E-02    0.528E-02
DAV:  11    -0.475676878315E+03    0.42993E-05   -0.26029E-05  4512   0.242E-02    0.346E-02
DAV:  12    -0.475676880568E+03   -0.22530E-05   -0.14537E-05  3232   0.172E-02    0.359E-02
DAV:  13    -0.475676880351E+03    0.21693E-06   -0.15658E-05  3360   0.179E-02    0.321E-02
DAV:  14    -0.475676877816E+03    0.25354E-05   -0.91843E-06  2880   0.142E-02    0.112E-02
DAV:  15    -0.475676877889E+03   -0.73851E-07   -0.15025E-06  2848   0.656E-03
  12 F= -.47562413E+03 E0= -.47548139E+03  d E =-.657427E-04
       N       E                     dE             d eps       ncg     rms          rms(c)
DAV:   1    -0.475676903814E+03   -0.25998E-04   -0.11603E-03  5440   0.396E-02    0.128E-02
DAV:   2    -0.475676979514E+03   -0.75700E-04   -0.18815E-04  6432   0.701E-02    0.160E-01
DAV:   3    -0.475676904350E+03    0.75164E-04   -0.18792E-04  5856   0.671E-02    0.452E-02
DAV:   4    -0.475676910011E+03   -0.56609E-05   -0.43394E-05  4128   0.262E-02    0.589E-02
DAV:   5    -0.475676906078E+03    0.39329E-05   -0.32899E-05  3168   0.201E-02    0.262E-02
DAV:   6    -0.475676907863E+03   -0.17849E-05   -0.13893E-05  3904   0.189E-02    0.317E-02
DAV:   7    -0.475676907163E+03    0.69990E-06   -0.16521E-05  3520   0.185E-02    0.320E-02
DAV:   8    -0.475676905194E+03    0.19691E-05   -0.95761E-06  2784   0.139E-02    0.121E-02
DAV:   9    -0.475676906284E+03   -0.10904E-05   -0.45354E-06  3072   0.111E-02    0.190E-02
DAV:  10    -0.475676906565E+03   -0.28114E-06   -0.55984E-06  2816   0.121E-02
  13 F= -.47562416E+03 E0= -.47548142E+03  d E =-.321599E-04
       N       E                     dE             d eps       ncg     rms          rms(c)
DAV:   1    -0.475676921032E+03   -0.14748E-04   -0.39912E-03  5120   0.736E-02    0.185E-02
DAV:   2    -0.475677240987E+03   -0.31995E-03   -0.91034E-04  7328   0.114E-01    0.391E-01
DAV:   3    -0.475676973048E+03    0.26794E-03   -0.11866E-03  5952   0.115E-01    0.160E-01
DAV:   4    -0.475676925094E+03    0.47954E-04   -0.16466E-04  6560   0.551E-02    0.369E-02
DAV:   5    -0.475676937832E+03   -0.12737E-04   -0.46511E-05  6144   0.398E-02    0.626E-02
DAV:   6    -0.475676934411E+03    0.34206E-05   -0.60372E-05  5920   0.393E-02    0.610E-02
DAV:   7    -0.475676927536E+03    0.68745E-05   -0.38196E-05  5472   0.296E-02    0.309E-02
DAV:   8    -0.475676928448E+03   -0.91153E-06   -0.18873E-05  3296   0.197E-02    0.302E-02
DAV:   9    -0.475676933005E+03   -0.45574E-05   -0.23494E-05  4032   0.238E-02    0.456E-02
DAV:  10    -0.475676926660E+03    0.63457E-05   -0.18017E-05  3584   0.218E-02    0.180E-02
DAV:  11    -0.475676927237E+03   -0.57781E-06   -0.43152E-06  2976   0.104E-02
  14 F= -.47562422E+03 E0= -.47548149E+03  d E =-.830835E-04
       N       E                     dE             d eps       ncg     rms          rms(c)
DAV:   1    -0.475676949140E+03   -0.22480E-04   -0.19167E-03  5120   0.529E-02    0.216E-02
DAV:   2    -0.475677584033E+03   -0.63489E-03   -0.18100E-03  5952   0.167E-01    0.544E-01
DAV:   3    -0.475677102200E+03    0.48183E-03   -0.26376E-03  5760   0.171E-01    0.280E-01
DAV:   4    -0.475676948530E+03    0.15367E-03   -0.48218E-04  5664   0.901E-02    0.573E-02
DAV:   5    -0.475676955347E+03   -0.68170E-05   -0.70436E-05  6208   0.409E-02    0.533E-02
DAV:   6    -0.475676969115E+03   -0.13768E-04   -0.84589E-05  5664   0.424E-02    0.874E-02
DAV:   7    -0.475676956125E+03    0.12990E-04   -0.79301E-05  5664   0.393E-02    0.544E-02
DAV:   8    -0.475676949085E+03    0.70397E-05   -0.23988E-05  4096   0.238E-02    0.169E-02
DAV:   9    -0.475676950962E+03   -0.18774E-05   -0.62973E-06  3168   0.125E-02    0.185E-02
DAV:  10    -0.475676952187E+03   -0.12249E-05   -0.80190E-06  2816   0.142E-02    0.261E-02
DAV:  11    -0.475676950811E+03    0.13758E-05   -0.58565E-06  2848   0.125E-02    0.195E-02
DAV:  12    -0.475676950823E+03   -0.11860E-07   -0.18592E-06  2720   0.688E-03
  15 F= -.47562425E+03 E0= -.47548152E+03  d E =-.355459E-04
       N       E                     dE             d eps       ncg     rms          rms(c)
DAV:   1    -0.475676965535E+03   -0.14723E-04   -0.16696E-02  5120   0.152E-01    0.393E-02
DAV:   2    -0.475679841066E+03   -0.28755E-02   -0.85960E-03  5984   0.323E-01    0.121E+00
DAV:   3    -0.475677270223E+03    0.25708E-02   -0.99429E-03  6144   0.324E-01    0.353E-01
DAV:   4    -0.475676988927E+03    0.28130E-03   -0.88965E-04  6208   0.127E-01    0.999E-02
DAV:   5    -0.475677041681E+03   -0.52754E-04   -0.32726E-04  6176   0.891E-02    0.156E-01
DAV:   6    -0.475677063803E+03   -0.22122E-04   -0.43091E-04  6688   0.963E-02    0.181E-01
DAV:   7    -0.475676982913E+03    0.80890E-04   -0.23670E-04  5920   0.797E-02    0.609E-02
DAV:   8    -0.475676979615E+03    0.32984E-05   -0.48239E-05  6496   0.390E-02    0.365E-02
DAV:   9    -0.475676997710E+03   -0.18095E-04   -0.59007E-05  5824   0.383E-02    0.821E-02
DAV:  10    -0.475676988534E+03    0.91762E-05   -0.71082E-05  5792   0.394E-02    0.595E-02
DAV:  11    -0.475676981953E+03    0.65802E-05   -0.32745E-05  4928   0.272E-02    0.371E-02
DAV:  12    -0.475676981683E+03    0.27040E-06   -0.11564E-05  3168   0.163E-02    0.256E-02
DAV:  13    -0.475676983976E+03   -0.22930E-05   -0.11715E-05  3296   0.172E-02    0.327E-02
DAV:  14    -0.475676980825E+03    0.31513E-05   -0.10132E-05  3008   0.158E-02    0.141E-02
DAV:  15    -0.475676980878E+03   -0.53362E-07   -0.16877E-06  2752   0.660E-03
  16 F= -.47562420E+03 E0= -.47548148E+03  d E =0.140898E-04
       N       E                     dE             d eps       ncg     rms          rms(c)
DAV:   1    -0.475676993825E+03   -0.13001E-04   -0.59770E-04  5440   0.297E-02    0.108E-02
DAV:   2    -0.475677126962E+03   -0.13314E-03   -0.36132E-04  6016   0.776E-02    0.249E-01
DAV:   3    -0.475677031646E+03    0.95316E-04   -0.57600E-04  5792   0.809E-02    0.140E-01
DAV:   4    -0.475676994217E+03    0.37429E-04   -0.12510E-04  5472   0.448E-02    0.278E-02
DAV:   5    -0.475676995388E+03   -0.11712E-05   -0.15683E-05  3584   0.198E-02    0.247E-02
DAV:   6    -0.475676998119E+03   -0.27310E-05   -0.16945E-05  3872   0.204E-02    0.377E-02
DAV:   7    -0.475676995293E+03    0.28264E-05   -0.16048E-05  3040   0.187E-02    0.259E-02
DAV:   8    -0.475676994235E+03    0.10578E-05   -0.53002E-06  2752   0.106E-02    0.836E-03
DAV:   9    -0.475676994672E+03   -0.43643E-06   -0.17302E-06  3008   0.689E-03
  17 F= -.47562421E+03 E0= -.47548150E+03  d E =-.990509E-05
       N       E                     dE             d eps       ncg     rms          rms(c)
DAV:   1    -0.475677022873E+03   -0.28638E-04   -0.53710E-03  5120   0.876E-02    0.193E-02
DAV:   2    -0.475677161925E+03   -0.13905E-03   -0.39959E-04  8224   0.901E-02    0.226E-01
DAV:   3    -0.475677051568E+03    0.11036E-03   -0.47832E-04  5824   0.909E-02    0.131E-01
DAV:   4    -0.475677033534E+03    0.18034E-04   -0.16334E-04  6336   0.447E-02    0.616E-02
DAV:   5    -0.475677032022E+03    0.15121E-05   -0.52733E-05  5504   0.331E-02    0.450E-02
DAV:   6    -0.475677044283E+03   -0.12261E-04   -0.68051E-05  5952   0.364E-02    0.833E-02
DAV:   7    -0.475677030231E+03    0.14052E-04   -0.60859E-05  6016   0.353E-02    0.375E-02
DAV:   8    -0.475677028391E+03    0.18398E-05   -0.17786E-05  3776   0.224E-02    0.208E-02
DAV:   9    -0.475677033935E+03   -0.55438E-05   -0.18078E-05  4032   0.235E-02    0.441E-02
DAV:  10    -0.475677030869E+03    0.30656E-05   -0.20294E-05  4192   0.245E-02    0.361E-02
DAV:  11    -0.475677027777E+03    0.30925E-05   -0.83561E-06  3040   0.165E-02    0.892E-03
DAV:  12    -0.475677028729E+03   -0.95271E-06   -0.24960E-06  3008   0.797E-03
  18 F= -.47562424E+03 E0= -.47548152E+03  d E =-.372294E-04
       N       E                     dE             d eps       ncg     rms          rms(c)
DAV:   1    -0.475677034696E+03   -0.69194E-05   -0.21488E-02  5120   0.175E-01    0.395E-02
DAV:   2    -0.475678458130E+03   -0.14234E-02   -0.40703E-03  6912   0.247E-01    0.811E-01
DAV:   3    -0.475677392960E+03    0.10652E-02   -0.57044E-03  5888   0.257E-01    0.421E-01
DAV:   4    -0.475677062716E+03    0.33024E-03   -0.11128E-03  6208   0.129E-01    0.863E-02
DAV:   5    -0.475677093628E+03   -0.30912E-04   -0.25777E-04  6400   0.756E-02    0.127E-01
DAV:   6    -0.475677135027E+03   -0.41399E-04   -0.32610E-04  6048   0.861E-02    0.179E-01
DAV:   7    -0.475677050257E+03    0.84771E-04   -0.20596E-04  5984   0.735E-02    0.486E-02
DAV:   8    -0.475677059704E+03   -0.94478E-05   -0.47550E-05  5824   0.410E-02    0.485E-02
DAV:   9    -0.475677079997E+03   -0.20292E-04   -0.85094E-05  5888   0.474E-02    0.933E-02
DAV:  10    -0.475677059497E+03    0.20499E-04   -0.78575E-05  5792   0.441E-02    0.473E-02
DAV:  11    -0.475677055814E+03    0.36838E-05   -0.19906E-05  4128   0.232E-02    0.267E-02
DAV:  12    -0.475677060451E+03   -0.46373E-05   -0.15882E-05  3296   0.191E-02    0.440E-02
DAV:  13    -0.475677058367E+03    0.20841E-05   -0.22500E-05  3328   0.199E-02    0.350E-02
DAV:  14    -0.475677055625E+03    0.27421E-05   -0.94136E-06  2880   0.147E-02    0.828E-03
DAV:  15    -0.475677055959E+03   -0.33381E-06   -0.12825E-06  3104   0.596E-03
  19 F= -.47562430E+03 E0= -.47548159E+03  d E =-.992222E-04
       N       E                     dE             d eps       ncg     rms          rms(c)
DAV:   1    -0.475677085841E+03   -0.30216E-04   -0.25979E-03  5120   0.602E-02    0.171E-02
DAV:   2    -0.475677294228E+03   -0.20839E-03   -0.56273E-04  6272   0.104E-01    0.291E-01
DAV:   3    -0.475677160619E+03    0.13361E-03   -0.91435E-04  5696   0.109E-01    0.212E-01
DAV:   4    -0.475677087841E+03    0.72778E-04   -0.27450E-04  5952   0.597E-02    0.354E-02
DAV:   5    -0.475677091194E+03   -0.33530E-05   -0.31870E-05  5472   0.293E-02    0.385E-02
DAV:   6    -0.475677097562E+03   -0.63672E-05   -0.40925E-05  5312   0.314E-02    0.600E-02
DAV:   7    -0.475677089949E+03    0.76129E-05   -0.36816E-05  5312   0.289E-02    0.356E-02
DAV:   8    -0.475677087995E+03    0.19542E-05   -0.12410E-05  3104   0.162E-02    0.148E-02
DAV:   9    -0.475677090135E+03   -0.21407E-05   -0.80346E-06  3136   0.139E-02    0.258E-02
DAV:  10    -0.475677090263E+03   -0.12785E-06   -0.92225E-06  3200   0.154E-02
  20 F= -.47562434E+03 E0= -.47548162E+03  d E =-.440826E-04
       N       E                     dE             d eps       ncg     rms          rms(c)
DAV:   1    -0.475677130072E+03   -0.39936E-04   -0.23355E-02  5120   0.180E-01    0.416E-02
DAV:   2    -0.475679719878E+03   -0.25898E-02   -0.73991E-03  6496   0.307E-01    0.114E+00
DAV:   3    -0.475677408697E+03    0.23112E-02   -0.88185E-03  6048   0.309E-01    0.330E-01
DAV:   4    -0.475677151682E+03    0.25701E-03   -0.68355E-04  6816   0.121E-01    0.727E-02
DAV:   5    -0.475677242552E+03   -0.90870E-04   -0.29946E-04  6176   0.971E-02    0.171E-01
DAV:   6    -0.475677183015E+03    0.59537E-04   -0.37112E-04  5984   0.951E-02    0.129E-01
DAV:   7    -0.475677156820E+03    0.26195E-04   -0.16786E-04  5760   0.597E-02    0.615E-02
DAV:   8    -0.475677160335E+03   -0.35147E-05   -0.71497E-05  5824   0.390E-02    0.605E-02
DAV:   9    -0.475677181144E+03   -0.20810E-04   -0.10867E-04  5888   0.507E-02    0.974E-02
DAV:  10    -0.475677155669E+03    0.25475E-04   -0.86290E-05  5856   0.468E-02    0.472E-02
DAV:  11    -0.475677154285E+03    0.13842E-05   -0.20062E-05  3744   0.223E-02    0.300E-02
DAV:  12    -0.475677156183E+03   -0.18980E-05   -0.10909E-05  3328   0.164E-02    0.321E-02
DAV:  13    -0.475677155771E+03    0.41199E-06   -0.14482E-05  3104   0.168E-02    0.310E-02
DAV:  14    -0.475677153756E+03    0.20149E-05   -0.85774E-06  2784   0.129E-02    0.130E-02
DAV:  15    -0.475677153724E+03    0.31519E-07   -0.17627E-06  2848   0.664E-03
  21 F= -.47562438E+03 E0= -.47548168E+03  d E =-.825409E-04
       N       E                     dE             d eps       ncg     rms          rms(c)
DAV:   1    -0.475677060743E+03    0.93012E-04   -0.93457E-02  5120   0.359E-01    0.718E-02
DAV:   2    -0.475680823483E+03   -0.37627E-02   -0.11343E-02  7200   0.392E-01    0.133E+00
DAV:   3    -0.475677788949E+03    0.30345E-02   -0.14032E-02  5888   0.397E-01    0.543E-01
DAV:   4    -0.475677172216E+03    0.61673E-03   -0.18980E-03  6688   0.193E-01    0.137E-01
DAV:   5    -0.475677338600E+03   -0.16638E-03   -0.74333E-04  6464   0.152E-01    0.249E-01
DAV:   6    -0.475677236252E+03    0.10235E-03   -0.81094E-04  5920   0.147E-01    0.197E-01
DAV:   7    -0.475677175213E+03    0.61039E-04   -0.46415E-04  5760   0.105E-01    0.125E-01
DAV:   8    -0.475677182863E+03   -0.76506E-05   -0.28473E-04  6336   0.778E-02    0.115E-01
DAV:   9    -0.475677298034E+03   -0.11517E-03   -0.47882E-04  5888   0.101E-01    0.236E-01
DAV:  10    -0.475677163121E+03    0.13491E-03   -0.39711E-04  5952   0.936E-02    0.743E-02
DAV:  11    -0.475677154721E+03    0.84000E-05   -0.52815E-05  5856   0.376E-02    0.431E-02
DAV:  12    -0.475677162864E+03   -0.81430E-05   -0.34298E-05  5248   0.292E-02    0.566E-02
DAV:  13    -0.475677157457E+03    0.54065E-05   -0.40212E-05  5280   0.285E-02    0.394E-02
DAV:  14    -0.475677154360E+03    0.30970E-05   -0.15650E-05  3040   0.183E-02    0.203E-02
DAV:  15    -0.475677154294E+03    0.66459E-07   -0.50497E-06  3072   0.105E-02
  22 F= -.47562432E+03 E0= -.47548164E+03  d E =-.212812E-04
       N       E                     dE             d eps       ncg     rms          rms(c)
DAV:   1    -0.475677257059E+03   -0.10270E-03   -0.12863E-02  5152   0.108E-01    0.328E-02
DAV:   2    -0.475677883712E+03   -0.62665E-03   -0.20086E-03  7968   0.174E-01    0.524E-01
DAV:   3    -0.475677500823E+03    0.38289E-03   -0.28214E-03  5984   0.182E-01    0.337E-01
DAV:   4    -0.475677296101E+03    0.20472E-03   -0.80236E-04  6528   0.106E-01    0.822E-02
DAV:   5    -0.475677299910E+03   -0.38090E-05   -0.14861E-04  6080   0.597E-02    0.832E-02
DAV:   6    -0.475677319560E+03   -0.19650E-04   -0.17686E-04  6432   0.606E-02    0.127E-01
DAV:   7    -0.475677288756E+03    0.30803E-04   -0.16544E-04  5920   0.564E-02    0.658E-02
DAV:   8    -0.475677284437E+03    0.43192E-05   -0.69002E-05  6176   0.414E-02    0.433E-02
DAV:   9    -0.475677301477E+03   -0.17040E-04   -0.74435E-05  6144   0.460E-02    0.805E-02
DAV:  10    -0.475677281845E+03    0.19633E-04   -0.62963E-05  6016   0.420E-02    0.384E-02
DAV:  11    -0.475677280549E+03    0.12954E-05   -0.16028E-05  4320   0.196E-02    0.198E-02
DAV:  12    -0.475677284822E+03   -0.42723E-05   -0.15800E-05  3392   0.184E-02    0.432E-02
DAV:  13    -0.475677281765E+03    0.30571E-05   -0.18458E-05  3232   0.187E-02    0.268E-02
DAV:  14    -0.475677280243E+03    0.15217E-05   -0.62408E-06  2784   0.120E-02    0.102E-02
DAV:  15    -0.475677280390E+03   -0.14738E-06   -0.13876E-06  2944   0.590E-03
  23 F= -.47562451E+03 E0= -.47548182E+03  d E =-.183738E-03
       N       E                     dE             d eps       ncg     rms          rms(c)
DAV:   1    -0.475677280841E+03   -0.59832E-06   -0.45661E-06  3584   0.679E-03    0.116E-02
DAV:   2    -0.475677384294E+03   -0.10345E-03   -0.24995E-04  5984   0.793E-02    0.194E-01
DAV:   3    -0.475677328993E+03    0.55301E-04   -0.47594E-04  5760   0.831E-02    0.172E-01
DAV:   4    -0.475677281853E+03    0.47140E-04   -0.17942E-04  5440   0.475E-02    0.320E-02
DAV:   5    -0.475677280681E+03    0.11712E-05   -0.11252E-05  3488   0.179E-02    0.177E-02
DAV:   6    -0.475677282172E+03   -0.14904E-05   -0.81723E-06  3040   0.154E-02    0.251E-02
DAV:   7    -0.475677281569E+03    0.60238E-06   -0.89118E-06  2784   0.142E-02
  24 F= -.47562452E+03 E0= -.47548183E+03  d E =-.199587E-03
       N       E                     dE             d eps       ncg     rms          rms(c)
DAV:   1    -0.475677317444E+03   -0.35273E-04   -0.47141E-03  5120   0.816E-02    0.193E-02
DAV:   2    -0.475677401004E+03   -0.83560E-04   -0.28438E-04  7584   0.728E-02    0.168E-01
DAV:   3    -0.475677336051E+03    0.64953E-04   -0.26634E-04  5792   0.734E-02    0.930E-02
DAV:   4    -0.475677343268E+03   -0.72167E-05   -0.16607E-04  5888   0.450E-02    0.105E-01
DAV:   5    -0.475677331889E+03    0.11379E-04   -0.11158E-04  5728   0.413E-02    0.571E-02
DAV:   6    -0.475677340305E+03   -0.84157E-05   -0.74411E-05  6208   0.399E-02    0.803E-02
DAV:   7    -0.475677325906E+03    0.14399E-04   -0.52477E-05  5888   0.363E-02    0.384E-02
DAV:   8    -0.475677324188E+03    0.17173E-05   -0.18156E-05  4896   0.241E-02    0.225E-02
DAV:   9    -0.475677330250E+03   -0.60614E-05   -0.21265E-05  4928   0.246E-02    0.453E-02
DAV:  10    -0.475677324975E+03    0.52745E-05   -0.20646E-05  4096   0.228E-02    0.258E-02
DAV:  11    -0.475677324063E+03    0.91235E-06   -0.67280E-06  3008   0.121E-02
  25 F= -.47562454E+03 E0= -.47548186E+03  d E =-.193394E-04
       N       E                     dE             d eps       ncg     rms          rms(c)
DAV:   1    -0.475677325360E+03   -0.38506E-06   -0.14918E-04  5376   0.172E-02    0.158E-02
DAV:   2    -0.475677578301E+03   -0.25294E-03   -0.62634E-04  6208   0.112E-01    0.329E-01
DAV:   3    -0.475677342712E+03    0.23559E-03   -0.74815E-04  5824   0.110E-01    0.116E-01
DAV:   4    -0.475677330552E+03    0.12160E-04   -0.12444E-04  5280   0.384E-02    0.550E-02
DAV:   5    -0.475677325249E+03    0.53028E-05   -0.26488E-05  3520   0.226E-02    0.197E-02
DAV:   6    -0.475677328773E+03   -0.35237E-05   -0.14632E-05  3712   0.199E-02    0.350E-02
DAV:   7    -0.475677325387E+03    0.33858E-05   -0.12197E-05  3168   0.182E-02    0.170E-02
DAV:   8    -0.475677325005E+03    0.38234E-06   -0.28426E-06  2784   0.920E-03
  26 F= -.47562453E+03 E0= -.47548185E+03  d E =-.102375E-04
       N       E                     dE             d eps       ncg     rms          rms(c)
DAV:   1    -0.475677349733E+03   -0.24346E-04   -0.21968E-03  5440   0.660E-02    0.115E-02
DAV:   2    -0.475677444864E+03   -0.95131E-04   -0.26272E-04  6848   0.700E-02    0.203E-01
DAV:   3    -0.475677379095E+03    0.65769E-04   -0.38730E-04  5760   0.724E-02    0.128E-01
DAV:   4    -0.475677353912E+03    0.25182E-04   -0.12109E-04  5440   0.396E-02    0.381E-02
DAV:   5    -0.475677352436E+03    0.14761E-05   -0.18754E-05  4512   0.203E-02    0.218E-02
DAV:   6    -0.475677355961E+03   -0.35251E-05   -0.17177E-05  4352   0.204E-02    0.380E-02
DAV:   7    -0.475677352901E+03    0.30603E-05   -0.16075E-05  3136   0.201E-02    0.240E-02
DAV:   8    -0.475677351881E+03    0.10194E-05   -0.53267E-06  2880   0.129E-02    0.101E-02
DAV:   9    -0.475677352936E+03   -0.10543E-05   -0.38994E-06  2944   0.108E-02    0.181E-02
DAV:  10    -0.475677353583E+03   -0.64766E-06   -0.67474E-06  2880   0.128E-02
  27 F= -.47562457E+03 E0= -.47548189E+03  d E =-.376371E-04
       N       E                     dE             d eps       ncg     rms          rms(c)
DAV:   1    -0.475677354292E+03   -0.13563E-05   -0.80984E-05  5504   0.168E-02    0.129E-02
DAV:   2    -0.475677548608E+03   -0.19432E-03   -0.52074E-04  6432   0.959E-02    0.294E-01
DAV:   3    -0.475677394884E+03    0.15372E-03   -0.73472E-04  5824   0.985E-02    0.158E-01
DAV:   4    -0.475677357209E+03    0.37676E-04   -0.16837E-04  5696   0.453E-02    0.384E-02
DAV:   5    -0.475677354969E+03    0.22404E-05   -0.18378E-05  4000   0.215E-02    0.214E-02
DAV:   6    -0.475677357469E+03   -0.25000E-05   -0.14296E-05  3648   0.192E-02    0.331E-02
DAV:   7    -0.475677354780E+03    0.26887E-05   -0.10950E-05  3072   0.168E-02    0.188E-02
DAV:   8    -0.475677354274E+03    0.50546E-06   -0.30378E-06  2784   0.882E-03
  28 F= -.47562458E+03 E0= -.47548189E+03  d E =-.434373E-04
       N       E                     dE             d eps       ncg     rms          rms(c)
DAV:   1    -0.475677366519E+03   -0.11739E-04   -0.74012E-04  5440   0.320E-02    0.769E-03
DAV:   2    -0.475677380942E+03   -0.14424E-04   -0.45577E-05  6432   0.297E-02    0.720E-02
DAV:   3    -0.475677366501E+03    0.14442E-04   -0.39970E-05  5728   0.292E-02    0.215E-02
DAV:   4    -0.475677369040E+03   -0.25389E-05   -0.13312E-05  3168   0.159E-02    0.327E-02
DAV:   5    -0.475677371282E+03   -0.22421E-05   -0.25635E-05  3072   0.172E-02    0.467E-02
DAV:   6    -0.475677369662E+03    0.16195E-05   -0.22357E-05  3072   0.185E-02    0.321E-02
DAV:   7    -0.475677367302E+03    0.23607E-05   -0.90321E-06  3424   0.151E-02    0.158E-02
DAV:   8    -0.475677367207E+03    0.94820E-07   -0.28252E-06  2976   0.959E-03
  29 F= -.47562459E+03 E0= -.47548191E+03  d E =-.165340E-04
       N       E                     dE             d eps       ncg     rms          rms(c)
DAV:   1    -0.475677371838E+03   -0.45361E-05   -0.10076E-03  5120   0.388E-02    0.186E-02
DAV:   2    -0.475677597324E+03   -0.22549E-03   -0.49034E-04  6144   0.117E-01    0.280E-01
DAV:   3    -0.475677381463E+03    0.21586E-03   -0.53298E-04  5856   0.113E-01    0.100E-01
DAV:   4    -0.475677382887E+03   -0.14247E-05   -0.13579E-04  5600   0.404E-02    0.814E-02
DAV:   5    -0.475677372956E+03    0.99312E-05   -0.51622E-05  5216   0.286E-02    0.267E-02
DAV:   6    -0.475677377091E+03   -0.41349E-05   -0.25246E-05  4672   0.233E-02    0.458E-02
DAV:   7    -0.475677375957E+03    0.11339E-05   -0.27788E-05  4704   0.242E-02    0.414E-02
DAV:   8    -0.475677371758E+03    0.41991E-05   -0.13248E-05  3104   0.189E-02    0.177E-02
DAV:   9    -0.475677372022E+03   -0.26409E-06   -0.37296E-06  2976   0.107E-02
  30 F= -.47562461E+03 E0= -.47548192E+03  d E =-.346082E-04
       N       E                     dE             d eps       ncg     rms          rms(c)
DAV:   1    -0.475677381388E+03   -0.96299E-05   -0.37701E-04  5440   0.282E-02    0.233E-02
DAV:   2    -0.475677808037E+03   -0.42665E-03   -0.10135E-03  6176   0.158E-01    0.401E-01
DAV:   3    -0.475677500745E+03    0.30729E-03   -0.15356E-03  5760   0.159E-01    0.259E-01
DAV:   4    -0.475677394823E+03    0.10592E-03   -0.47813E-04  5664   0.762E-02    0.840E-02
DAV:   5    -0.475677380887E+03    0.13935E-04   -0.65713E-05  5984   0.357E-02    0.299E-02
DAV:   6    -0.475677387758E+03   -0.68708E-05   -0.34504E-05  5184   0.270E-02    0.546E-02
DAV:   7    -0.475677383833E+03    0.39255E-05   -0.33529E-05  5376   0.270E-02    0.366E-02
DAV:   8    -0.475677380049E+03    0.37837E-05   -0.11117E-05  3360   0.188E-02    0.111E-02
DAV:   9    -0.475677380552E+03   -0.50286E-06   -0.23229E-06  3008   0.799E-03
  31 F= -.47562462E+03 E0= -.47548194E+03  d E =-.125356E-04
       N       E                     dE             d eps       ncg     rms          rms(c)
DAV:   1    -0.475677386260E+03   -0.62106E-05   -0.32451E-03  5120   0.744E-02    0.188E-02
DAV:   2    -0.475677586440E+03   -0.20018E-03   -0.51835E-04  6624   0.106E-01    0.280E-01
DAV:   3    -0.475677395161E+03    0.19128E-03   -0.53070E-04  6048   0.102E-01    0.702E-02
DAV:   4    -0.475677392607E+03    0.25539E-05   -0.66333E-05  5952   0.387E-02    0.445E-02
DAV:   5    -0.475677399249E+03   -0.66426E-05   -0.62289E-05  4608   0.269E-02    0.731E-02
DAV:   6    -0.475677396877E+03    0.23719E-05   -0.58533E-05  5280   0.302E-02    0.522E-02
DAV:   7    -0.475677392458E+03    0.44191E-05   -0.27392E-05  4960   0.262E-02    0.360E-02
DAV:   8    -0.475677389655E+03    0.28034E-05   -0.12430E-05  4192   0.210E-02    0.166E-02
DAV:   9    -0.475677393653E+03   -0.39981E-05   -0.13084E-05  3328   0.201E-02    0.364E-02
DAV:  10    -0.475677393432E+03    0.22120E-06   -0.21448E-05  3392   0.211E-02    0.410E-02
DAV:  11    -0.475677389662E+03    0.37701E-05   -0.12734E-05  3040   0.164E-02    0.112E-02
DAV:  12    -0.475677390209E+03   -0.54685E-06   -0.27895E-06  3008   0.772E-03
  32 F= -.47562460E+03 E0= -.47548191E+03  d E =0.133372E-04
       N       E                     dE             d eps       ncg     rms          rms(c)
DAV:   1    -0.475677396164E+03   -0.65017E-05   -0.14335E-04  5440   0.184E-02    0.151E-02
DAV:   2    -0.475677545505E+03   -0.14934E-03   -0.37203E-04  6016   0.987E-02    0.230E-01
DAV:   3    -0.475677435283E+03    0.11022E-03   -0.56293E-04  5632   0.983E-02    0.159E-01
DAV:   4    -0.475677402271E+03    0.33012E-04   -0.19132E-04  5504   0.482E-02    0.589E-02
DAV:   5    -0.475677395475E+03    0.67957E-05   -0.27887E-05  4192   0.233E-02    0.182E-02
DAV:   6    -0.475677397538E+03   -0.20629E-05   -0.11361E-05  3200   0.156E-02    0.287E-02
DAV:   7    -0.475677397587E+03   -0.48924E-07   -0.12555E-05  3040   0.163E-02    0.282E-02
DAV:   8    -0.475677395432E+03    0.21544E-05   -0.60673E-06  2752   0.129E-02    0.893E-03
DAV:   9    -0.475677395567E+03   -0.13465E-06   -0.94362E-07  2816   0.500E-03
  33 F= -.47562459E+03 E0= -.47548190E+03  d E =0.928044E-05
       N       E                     dE             d eps       ncg     rms          rms(c)
DAV:   1    -0.475677410246E+03   -0.14814E-04   -0.12700E-03  5184   0.480E-02    0.100E-02
DAV:   2    -0.475677473860E+03   -0.63613E-04   -0.15340E-04  5984   0.586E-02    0.160E-01
DAV:   3    -0.475677433197E+03    0.40663E-04   -0.27608E-04  5792   0.615E-02    0.120E-01
DAV:   4    -0.475677411751E+03    0.21446E-04   -0.96460E-05  5408   0.358E-02    0.300E-02
DAV:   5    -0.475677411250E+03    0.50115E-06   -0.12072E-05  3712   0.173E-02    0.197E-02
DAV:   6    -0.475677415348E+03   -0.40985E-05   -0.16397E-05  3328   0.189E-02    0.428E-02
DAV:   7    -0.475677411942E+03    0.34062E-05   -0.17158E-05  3200   0.193E-02    0.244E-02
DAV:   8    -0.475677410693E+03    0.12490E-05   -0.55713E-06  2912   0.127E-02    0.850E-03
DAV:   9    -0.475677411452E+03   -0.75884E-06   -0.26928E-06  2944   0.898E-03
  34 F= -.47562460E+03 E0= -.47548191E+03  d E =-.682652E-05
       N       E                     dE             d eps       ncg     rms          rms(c)
DAV:   1    -0.475677431272E+03   -0.20579E-04   -0.50703E-03  5120   0.961E-02    0.233E-02
DAV:   2    -0.475677808299E+03   -0.37703E-03   -0.95465E-04  5984   0.142E-01    0.392E-01
DAV:   3    -0.475677597303E+03    0.21100E-03   -0.17054E-03  5664   0.151E-01    0.302E-01
DAV:   4    -0.475677441094E+03    0.15621E-03   -0.59515E-04  5664   0.887E-02    0.670E-02
DAV:   5    -0.475677436840E+03    0.42539E-05   -0.68402E-05  6016   0.392E-02    0.447E-02
DAV:   6    -0.475677452911E+03   -0.16071E-04   -0.80071E-05  5696   0.396E-02    0.894E-02
DAV:   7    -0.475677438891E+03    0.14020E-04   -0.75727E-05  5792   0.397E-02    0.467E-02
DAV:   8    -0.475677433529E+03    0.53622E-05   -0.21960E-05  5152   0.262E-02    0.170E-02
DAV:   9    -0.475677435474E+03   -0.19453E-05   -0.89847E-06  3264   0.169E-02    0.251E-02
DAV:  10    -0.475677439624E+03   -0.41504E-05   -0.18892E-05  3232   0.208E-02    0.494E-02
DAV:  11    -0.475677433368E+03    0.62567E-05   -0.16296E-05  3232   0.187E-02    0.161E-02
DAV:  12    -0.475677434304E+03   -0.93608E-06   -0.28155E-06  3104   0.793E-03
  35 F= -.47562464E+03 E0= -.47548196E+03  d E =-.393464E-04
       N       E                     dE             d eps       ncg     rms          rms(c)
DAV:   1    -0.475677443308E+03   -0.99406E-05   -0.26845E-04  5728   0.185E-02    0.170E-02
DAV:   2    -0.475677835814E+03   -0.39251E-03   -0.10014E-03  6304   0.133E-01    0.425E-01
DAV:   3    -0.475677555986E+03    0.27983E-03   -0.16668E-03  5984   0.139E-01    0.244E-01
DAV:   4    -0.475677447960E+03    0.10803E-03   -0.37498E-04  5856   0.751E-02    0.562E-02
DAV:   5    -0.475677444633E+03    0.33264E-05   -0.40631E-05  5600   0.322E-02    0.338E-02
DAV:   6    -0.475677454636E+03   -0.10003E-04   -0.44015E-05  5472   0.310E-02    0.675E-02
DAV:   7    -0.475677445426E+03    0.92103E-05   -0.39095E-05  5536   0.297E-02    0.371E-02
DAV:   8    -0.475677442514E+03    0.29118E-05   -0.10057E-05  3104   0.173E-02    0.898E-03
DAV:   9    -0.475677443362E+03   -0.84803E-06   -0.23343E-06  3072   0.814E-03
  36 F= -.47562467E+03 E0= -.47548198E+03  d E =-.296992E-04
       N       E                     dE             d eps       ncg     rms          rms(c)
DAV:   1    -0.475677447659E+03   -0.51451E-05   -0.62399E-04  5440   0.253E-02    0.172E-02
DAV:   2    -0.475677735209E+03   -0.28755E-03   -0.74447E-04  6112   0.119E-01    0.355E-01
DAV:   3    -0.475677558314E+03    0.17689E-03   -0.12987E-03  5792   0.126E-01    0.245E-01
DAV:   4    -0.475677452116E+03    0.10620E-03   -0.36629E-04  5696   0.704E-02    0.467E-02
DAV:   5    -0.475677451071E+03    0.10448E-05   -0.39698E-05  5664   0.311E-02    0.400E-02
DAV:   6    -0.475677455836E+03   -0.47649E-05   -0.41918E-05  5248   0.287E-02    0.565E-02
DAV:   7    -0.475677450289E+03    0.55467E-05   -0.32179E-05  5536   0.267E-02    0.333E-02
DAV:   8    -0.475677447700E+03    0.25896E-05   -0.99503E-06  3200   0.172E-02    0.108E-02
DAV:   9    -0.475677448894E+03   -0.11942E-05   -0.42998E-06  3072   0.115E-02    0.191E-02
DAV:  10    -0.475677449277E+03   -0.38357E-06   -0.62353E-06  3072   0.128E-02
  37 F= -.47562468E+03 E0= -.47548198E+03  d E =-.456282E-04
       N       E                     dE             d eps       ncg     rms          rms(c)
DAV:   1    -0.475677454749E+03   -0.58556E-05   -0.30672E-04  5120   0.232E-02    0.100E-02
DAV:   2    -0.475677745787E+03   -0.29104E-03   -0.84368E-04  6048   0.988E-02    0.395E-01
DAV:   3    -0.475677470689E+03    0.27510E-03   -0.95301E-04  5952   0.998E-02    0.786E-02
DAV:   4    -0.475677456131E+03    0.14558E-04   -0.55545E-05  4928   0.338E-02    0.316E-02
DAV:   5    -0.475677460009E+03   -0.38777E-05   -0.25360E-05  4576   0.249E-02    0.432E-02
DAV:   6    -0.475677460772E+03   -0.76345E-06   -0.32816E-05  5024   0.260E-02    0.481E-02
DAV:   7    -0.475677455506E+03    0.52664E-05   -0.18867E-05  3104   0.213E-02    0.194E-02
DAV:   8    -0.475677455143E+03    0.36268E-06   -0.34849E-06  2944   0.995E-03
  38 F= -.47562469E+03 E0= -.47548200E+03  d E =-.129236E-04
       N       E                     dE             d eps       ncg     rms          rms(c)
DAV:   1    -0.475677460657E+03   -0.51514E-05   -0.16092E-03  5440   0.465E-02    0.141E-02
DAV:   2    -0.475677564494E+03   -0.10384E-03   -0.24880E-04  7200   0.757E-02    0.197E-01
DAV:   3    -0.475677486788E+03    0.77706E-04   -0.36875E-04  5824   0.776E-02    0.134E-01
DAV:   4    -0.475677464443E+03    0.22345E-04   -0.13684E-04  5984   0.406E-02    0.421E-02
DAV:   5    -0.475677463123E+03    0.13204E-05   -0.23473E-05  4416   0.235E-02    0.290E-02
DAV:   6    -0.475677471832E+03   -0.87091E-05   -0.38175E-05  5504   0.271E-02    0.643E-02
DAV:   7    -0.475677462372E+03    0.94598E-05   -0.33399E-05  4736   0.264E-02    0.264E-02
DAV:   8    -0.475677462113E+03    0.25927E-06   -0.81329E-06  3072   0.150E-02
  39 F= -.47562468E+03 E0= -.47548199E+03  d E =-.341929E-05
