       N       E                     dE             d eps       ncg     rms          rms(c)
DAV:   1     0.587168576130E+04    0.58717E+04   -0.31208E+05  4096   0.152E+03
DAV:   2     0.894745834343E+02   -0.57822E+04   -0.55148E+04  4096   0.360E+02
DAV:   3    -0.479232223940E+03   -0.56871E+03   -0.51028E+03  4608   0.153E+02
DAV:   4    -0.505945730085E+03   -0.26714E+02   -0.25955E+02  4672   0.331E+01
DAV:   5    -0.506492597272E+03   -0.54687E+00   -0.54421E+00  4512   0.394E+00    0.848E+01
DAV:   6    -0.548037796315E+03   -0.41545E+02   -0.83715E+02  4512   0.147E+02    0.122E+02
DAV:   7    -0.586128031477E+03   -0.38090E+02   -0.68240E+02  4736   0.175E+02    0.134E+02
DAV:   8    -0.884345360306E+03   -0.29822E+03   -0.63744E+02  4960   0.161E+02    0.230E+02
DAV:   9    -0.488115796548E+03    0.39623E+03   -0.53946E+02  5952   0.641E+01    0.957E+01
DAV:  10    -0.457551837614E+03    0.30564E+02   -0.23584E+02  5024   0.724E+01    0.700E+01
DAV:  11    -0.497420439770E+03   -0.39869E+02   -0.27385E+02  4672   0.109E+02    0.108E+02
DAV:  12    -0.482643074259E+03    0.14777E+02   -0.16884E+02  4576   0.722E+01    0.108E+02
DAV:  13    -0.461920927532E+03    0.20722E+02   -0.10370E+02  4768   0.545E+01    0.936E+01
DAV:  14    -0.445236363616E+03    0.16685E+02   -0.26474E+01  4800   0.352E+01    0.709E+01
DAV:  15    -0.444874350110E+03    0.36201E+00   -0.57878E+01  4480   0.390E+01    0.686E+01
DAV:  16    -0.443740741294E+03    0.11336E+01   -0.62889E+01  4512   0.382E+01    0.707E+01
DAV:  17    -0.434866104997E+03    0.88746E+01   -0.37184E+01  4640   0.267E+01    0.452E+01
DAV:  18    -0.432223156872E+03    0.26429E+01   -0.24676E+01  4480   0.236E+01    0.367E+01
DAV:  19    -0.431706426498E+03    0.51673E+00   -0.19926E+01  4768   0.218E+01    0.343E+01
DAV:  20    -0.432284859014E+03   -0.57843E+00   -0.19229E+01  4544   0.210E+01    0.434E+01
DAV:  21    -0.430143336648E+03    0.21415E+01   -0.15012E+01  4576   0.158E+01    0.303E+01
DAV:  22    -0.428704187424E+03    0.14391E+01   -0.89001E+00  4576   0.148E+01    0.213E+01
DAV:  23    -0.428194143796E+03    0.51004E+00   -0.49992E+00  4512   0.108E+01    0.200E+01
DAV:  24    -0.428025281487E+03    0.16886E+00   -0.24035E+00  4512   0.752E+00    0.217E+01
DAV:  25    -0.427588902808E+03    0.43638E+00   -0.12904E+00  4448   0.525E+00    0.155E+01
DAV:  26    -0.427445021105E+03    0.14388E+00   -0.20956E+00  4608   0.620E+00    0.136E+01
DAV:  27    -0.427555417013E+03   -0.11040E+00   -0.62503E-01  5792   0.359E+00    0.167E+01
DAV:  28    -0.427410636315E+03    0.14478E+00   -0.34674E-01  5248   0.281E+00    0.151E+01
DAV:  29    -0.427195589194E+03    0.21505E+00   -0.39984E-01  4672   0.305E+00    0.123E+01
DAV:  30    -0.427073272524E+03    0.12232E+00   -0.43604E-01  4672   0.333E+00    0.969E+00
DAV:  31    -0.427169325942E+03   -0.96053E-01   -0.64416E-01  4832   0.428E+00    0.112E+01
DAV:  32    -0.427044514398E+03    0.12481E+00   -0.63804E-01  4672   0.425E+00    0.883E+00
DAV:  33    -0.427004816644E+03    0.39698E-01   -0.38671E-01  4736   0.325E+00    0.828E+00
DAV:  34    -0.426963799610E+03    0.41017E-01   -0.30394E-01  5216   0.272E+00    0.757E+00
DAV:  35    -0.426879813571E+03    0.83986E-01   -0.24632E-01  4544   0.256E+00    0.593E+00
DAV:  36    -0.426873359129E+03    0.64544E-02   -0.12551E-01  4896   0.177E+00    0.585E+00
DAV:  37    -0.426860245203E+03    0.13114E-01   -0.15280E-01  4640   0.192E+00    0.510E+00
DAV:  38    -0.426812789551E+03    0.47456E-01   -0.11305E-01  4704   0.169E+00    0.259E+00
DAV:  39    -0.426812216540E+03    0.57301E-03   -0.38293E-02  4640   0.104E+00    0.235E+00
DAV:  40    -0.426808443492E+03    0.37730E-02   -0.31091E-02  4544   0.936E-01    0.230E+00
DAV:  41    -0.426808715106E+03   -0.27161E-03   -0.11161E-02  4608   0.583E-01    0.249E+00
DAV:  42    -0.426803096069E+03    0.56190E-02   -0.14996E-02  4608   0.610E-01    0.165E+00
DAV:  43    -0.426798605420E+03    0.44906E-02   -0.11295E-02  4608   0.540E-01    0.910E-01
DAV:  44    -0.426799505550E+03   -0.90013E-03   -0.69339E-03  5056   0.394E-01    0.103E+00
DAV:  45    -0.426799557395E+03   -0.51845E-04   -0.54593E-03  4736   0.346E-01    0.114E+00
DAV:  46    -0.426798923248E+03    0.63415E-03   -0.15923E-03  4928   0.190E-01    0.999E-01
DAV:  47    -0.426798344938E+03    0.57831E-03   -0.31412E-03  4896   0.277E-01    0.728E-01
DAV:  48    -0.426797745201E+03    0.59974E-03   -0.23033E-03  4608   0.256E-01    0.512E-01
DAV:  49    -0.426797846503E+03   -0.10130E-03   -0.73094E-04  5248   0.136E-01    0.518E-01
DAV:  50    -0.426797796787E+03    0.49716E-04   -0.65056E-04  4544   0.129E-01    0.386E-01
DAV:  51    -0.426797633172E+03    0.16361E-03   -0.10529E-03  5920   0.170E-01    0.236E-01
DAV:  52    -0.426797952497E+03   -0.31933E-03   -0.57028E-04  5216   0.133E-01    0.236E-01
DAV:  53    -0.426798069918E+03   -0.11742E-03   -0.44642E-04  4352   0.126E-01    0.134E-01
DAV:  54    -0.426798301369E+03   -0.23145E-03   -0.30027E-04  4768   0.918E-02    0.177E-01
DAV:  55    -0.426798412237E+03   -0.11087E-03   -0.28796E-04  4320   0.862E-02    0.802E-02
DAV:  56    -0.426798459512E+03   -0.47276E-04   -0.11714E-04  4768   0.522E-02    0.712E-02
DAV:  57    -0.426798662543E+03   -0.20303E-03   -0.85187E-05  4960   0.467E-02    0.686E-02
DAV:  58    -0.426798763084E+03   -0.10054E-03   -0.51537E-05  4416   0.440E-02    0.404E-02
DAV:  59    -0.426798928128E+03   -0.16504E-03   -0.34673E-05  4736   0.302E-02    0.534E-02
DAV:  60    -0.426798963725E+03   -0.35597E-04   -0.23805E-05  4480   0.291E-02
   1 F= -.42679842E+03 E0= -.42665282E+03  d E =-.426798E+03
       N       E                     dE             d eps       ncg     rms          rms(c)
DAV:   1    -0.426817843043E+03   -0.18915E-01   -0.48263E+00  4096   0.288E+00    0.529E-01
DAV:   2    -0.426852934594E+03   -0.35092E-01   -0.10893E-01  6112   0.160E+00    0.328E+00
DAV:   3    -0.426853682698E+03   -0.74810E-03   -0.20135E-01  4608   0.180E+00    0.424E+00
DAV:   4    -0.426824415478E+03    0.29267E-01   -0.12495E-01  4672   0.127E+00    0.118E+00
DAV:   5    -0.426830797264E+03   -0.63818E-02   -0.36347E-02  4768   0.953E-01    0.188E+00
DAV:   6    -0.426829498641E+03    0.12986E-02   -0.41350E-02  4768   0.105E+00    0.165E+00
DAV:   7    -0.426822047966E+03    0.74507E-02   -0.28614E-02  4704   0.895E-01    0.720E-01
DAV:   8    -0.426826660182E+03   -0.46122E-02   -0.27795E-02  4640   0.693E-01    0.155E+00
DAV:   9    -0.426826176740E+03    0.48344E-03   -0.31750E-02  4704   0.772E-01    0.130E+00
DAV:  10    -0.426821434041E+03    0.47427E-02   -0.14014E-02  4800   0.603E-01    0.396E-01
DAV:  11    -0.426821470644E+03   -0.36603E-04   -0.40835E-03  4704   0.311E-01    0.417E-01
DAV:  12    -0.426822138317E+03   -0.66767E-03   -0.45336E-03  4736   0.319E-01    0.608E-01
DAV:  13    -0.426821237123E+03    0.90119E-03   -0.36172E-03  4736   0.277E-01    0.251E-01
DAV:  14    -0.426821068028E+03    0.16909E-03   -0.63805E-04  4512   0.121E-01    0.797E-02
DAV:  15    -0.426821100573E+03   -0.32546E-04   -0.18853E-04  5792   0.678E-02    0.110E-01
DAV:  16    -0.426821132952E+03   -0.32379E-04   -0.19013E-04  4544   0.674E-02    0.113E-01
DAV:  17    -0.426821112851E+03    0.20101E-04   -0.10847E-04  4608   0.513E-02    0.441E-02
DAV:  18    -0.426821120637E+03   -0.77857E-05   -0.35559E-05  4608   0.316E-02    0.458E-02
DAV:  19    -0.426821163591E+03   -0.42953E-04   -0.45747E-05  4288   0.348E-02    0.605E-02
DAV:  20    -0.426821172340E+03   -0.87489E-05   -0.33842E-05  4416   0.315E-02    0.168E-02
DAV:  21    -0.426821178667E+03   -0.63277E-05   -0.66799E-06  2720   0.132E-02    0.170E-02
DAV:  22    -0.426821204586E+03   -0.25919E-04   -0.10952E-05  2880   0.152E-02    0.324E-02
DAV:  23    -0.426821218198E+03   -0.13612E-04   -0.91372E-06  3072   0.138E-02    0.117E-02
DAV:  24    -0.426821221878E+03   -0.36798E-05   -0.18760E-06  2656   0.610E-03    0.760E-03
DAV:  25    -0.426821232134E+03   -0.10256E-04   -0.15743E-06  2592   0.610E-03    0.112E-02
DAV:  26    -0.426821258839E+03   -0.26705E-04   -0.19651E-06  2848   0.632E-03    0.752E-03
DAV:  27    -0.426821265730E+03   -0.68912E-05   -0.78412E-07  2784   0.477E-03    0.283E-03
DAV:  28    -0.426821284418E+03   -0.18687E-04   -0.82782E-07  2752   0.455E-03    0.795E-03
DAV:  29    -0.426821301816E+03   -0.17399E-04   -0.10307E-06  2944   0.479E-03    0.489E-03
DAV:  30    -0.426821305320E+03   -0.35033E-05   -0.29137E-07  2720   0.255E-03    0.471E-03
DAV:  31    -0.426821319400E+03   -0.14081E-04   -0.58333E-07  2752   0.309E-03    0.563E-03
DAV:  32    -0.426821324932E+03   -0.55314E-05   -0.40232E-07  2656   0.302E-03    0.206E-03
DAV:  33    -0.426821326923E+03   -0.19909E-05   -0.13739E-07  2496   0.158E-03    0.253E-03
DAV:  34    -0.426821331984E+03   -0.50610E-05   -0.19447E-07  2464   0.169E-03    0.225E-03
DAV:  35    -0.426821333038E+03   -0.10540E-05   -0.78511E-08  2688   0.131E-03    0.110E-03
DAV:  36    -0.426821334748E+03   -0.17109E-05   -0.60890E-08  2528   0.108E-03    0.184E-03
DAV:  37    -0.426821336310E+03   -0.15614E-05   -0.64129E-08  2496   0.105E-03    0.102E-03
DAV:  38    -0.426821336648E+03   -0.33782E-06   -0.19849E-08  2592   0.591E-04
   2 F= -.42682112E+03 E0= -.42667580E+03  d E =-.227059E-01
       N       E                     dE             d eps       ncg     rms          rms(c)
DAV:   1    -0.426827307132E+03   -0.59708E-02   -0.25470E+00  4096   0.209E+00    0.379E-01
DAV:   2    -0.426842909079E+03   -0.15602E-01   -0.54959E-02  5888   0.114E+00    0.202E+00
DAV:   3    -0.426830695456E+03    0.12214E-01   -0.41688E-02  4384   0.115E+00    0.969E-01
DAV:   4    -0.426834980749E+03   -0.42853E-02   -0.32864E-02  5120   0.658E-01    0.185E+00
DAV:   5    -0.426834522243E+03    0.45851E-03   -0.37126E-02  4672   0.756E-01    0.147E+00
DAV:   6    -0.426832962794E+03    0.15594E-02   -0.24183E-02  4512   0.745E-01    0.115E+00
DAV:   7    -0.426829354590E+03    0.36082E-02   -0.13808E-02  4480   0.630E-01    0.507E-01
DAV:   8    -0.426832427196E+03   -0.30726E-02   -0.15696E-02  4576   0.528E-01    0.122E+00
DAV:   9    -0.426831292948E+03    0.11342E-02   -0.18392E-02  4544   0.563E-01    0.911E-01
DAV:  10    -0.426829011394E+03    0.22816E-02   -0.68503E-03  4608   0.415E-01    0.284E-01
DAV:  11    -0.426829071348E+03   -0.59954E-04   -0.20290E-03  4864   0.216E-01    0.307E-01
DAV:  12    -0.426829386936E+03   -0.31559E-03   -0.22108E-03  4544   0.225E-01    0.430E-01
DAV:  13    -0.426828912289E+03    0.47465E-03   -0.16408E-03  4544   0.194E-01    0.171E-01
DAV:  14    -0.426828846898E+03    0.65392E-04   -0.24836E-04  4416   0.786E-02    0.756E-02
DAV:  15    -0.426828863342E+03   -0.16445E-04   -0.82004E-05  5728   0.453E-02    0.853E-02
DAV:  16    -0.426828864533E+03   -0.11907E-05   -0.89801E-05  4416   0.449E-02    0.711E-02
DAV:  17    -0.426828854731E+03    0.98027E-05   -0.42887E-05  4448   0.327E-02    0.293E-02
DAV:  18    -0.426828857994E+03   -0.32638E-05   -0.17001E-05  3648   0.218E-02    0.346E-02
DAV:  19    -0.426828873336E+03   -0.15342E-04   -0.23235E-05  3840   0.241E-02    0.399E-02
DAV:  20    -0.426828873348E+03   -0.12034E-07   -0.15718E-05  3936   0.211E-02    0.154E-02
DAV:  21    -0.426828876222E+03   -0.28732E-05   -0.48022E-06  2496   0.105E-02    0.191E-02
DAV:  22    -0.426828882731E+03   -0.65095E-05   -0.72334E-06  2656   0.119E-02    0.249E-02
DAV:  23    -0.426828884808E+03   -0.20763E-05   -0.47236E-06  2656   0.103E-02    0.930E-03
DAV:  24    -0.426828885660E+03   -0.85277E-06   -0.73287E-07  2432   0.387E-03
   3 F= -.42682878E+03 E0= -.42668367E+03  d E =-.303598E-01
       N       E                     dE             d eps       ncg     rms          rms(c)
DAV:   1    -0.426819478509E+03    0.94063E-02   -0.10168E+01  4096   0.419E+00    0.731E-01
DAV:   2    -0.426870094074E+03   -0.50616E-01   -0.21262E-01  5952   0.202E+00    0.365E+00
DAV:   3    -0.426857076978E+03    0.13017E-01   -0.22416E-01  4512   0.217E+00    0.410E+00
DAV:   4    -0.426832348089E+03    0.24729E-01   -0.13800E-01  4640   0.134E+00    0.158E+00
DAV:   5    -0.426851835440E+03   -0.19487E-01   -0.92629E-02  4672   0.145E+00    0.308E+00
DAV:   6    -0.426838443046E+03    0.13392E-01   -0.10539E-01  4640   0.148E+00    0.197E+00
DAV:   7    -0.426829039005E+03    0.94040E-02   -0.45125E-02  4384   0.116E+00    0.104E+00
DAV:   8    -0.426844740942E+03   -0.15702E-01   -0.68660E-02  4640   0.112E+00    0.279E+00
DAV:   9    -0.426833781695E+03    0.10959E-01   -0.79020E-02  4608   0.114E+00    0.155E+00
DAV:  10    -0.426826804060E+03    0.69776E-02   -0.21508E-02  4608   0.764E-01    0.496E-01
DAV:  11    -0.426827740686E+03   -0.93663E-03   -0.74908E-03  5056   0.431E-01    0.730E-01
DAV:  12    -0.426827895289E+03   -0.15460E-03   -0.80373E-03  4608   0.450E-01    0.722E-01
DAV:  13    -0.426826399809E+03    0.14955E-02   -0.42776E-03  4480   0.339E-01    0.242E-01
DAV:  14    -0.426826297610E+03    0.10220E-03   -0.58592E-04  5472   0.113E-01    0.137E-01
DAV:  15    -0.426826367635E+03   -0.70025E-04   -0.36985E-04  4576   0.920E-02    0.188E-01
DAV:  16    -0.426826340781E+03    0.26854E-04   -0.36256E-04  4416   0.873E-02    0.114E-01
DAV:  17    -0.426826311518E+03    0.29263E-04   -0.14790E-04  4448   0.603E-02    0.531E-02
DAV:  18    -0.426826340739E+03   -0.29221E-04   -0.92955E-05  4288   0.483E-02    0.865E-02
DAV:  19    -0.426826372438E+03   -0.31698E-04   -0.12648E-04  4224   0.519E-02    0.789E-02
DAV:  20    -0.426826366521E+03    0.59170E-05   -0.69395E-05  4512   0.389E-02    0.421E-02
DAV:  21    -0.426826371272E+03   -0.47512E-05   -0.21777E-05  3488   0.211E-02    0.402E-02
DAV:  22    -0.426826390450E+03   -0.19178E-04   -0.20145E-05  3872   0.225E-02    0.404E-02
DAV:  23    -0.426826395116E+03   -0.46657E-05   -0.12047E-05  3456   0.192E-02    0.114E-02
DAV:  24    -0.426826400222E+03   -0.51060E-05   -0.23684E-06  2688   0.855E-03    0.125E-02
DAV:  25    -0.426826422699E+03   -0.22478E-04   -0.34651E-06  3264   0.932E-03    0.139E-02
DAV:  26    -0.426826430868E+03   -0.81683E-05   -0.23748E-06  2848   0.863E-03    0.609E-03
DAV:  27    -0.426826445262E+03   -0.14394E-04   -0.22729E-06  2944   0.736E-03    0.140E-02
DAV:  28    -0.426826464305E+03   -0.19043E-04   -0.32779E-06  3424   0.775E-03    0.870E-03
DAV:  29    -0.426826469791E+03   -0.54867E-05   -0.12649E-06  2880   0.540E-03    0.706E-03
DAV:  30    -0.426826479482E+03   -0.96910E-05   -0.12164E-06  2784   0.511E-03    0.894E-03
DAV:  31    -0.426826487523E+03   -0.80405E-05   -0.13023E-06  3040   0.517E-03    0.422E-03
DAV:  32    -0.426826488839E+03   -0.13159E-05   -0.33861E-07  2688   0.271E-03    0.284E-03
DAV:  33    -0.426826494790E+03   -0.59513E-05   -0.54327E-07  2752   0.286E-03    0.494E-03
DAV:  34    -0.426826496649E+03   -0.18592E-05   -0.34856E-07  2656   0.289E-03    0.197E-03
DAV:  35    -0.426826497460E+03   -0.81056E-06   -0.12367E-07  2528   0.162E-03
   4 F= -.42682649E+03 E0= -.42668186E+03  d E =-.280745E-01
       N       E                     dE             d eps       ncg     rms          rms(c)
DAV:   1    -0.426828203138E+03   -0.17065E-02   -0.35362E+00  4096   0.247E+00    0.462E-01
DAV:   2    -0.426859814492E+03   -0.31611E-01   -0.10209E-01  5856   0.164E+00    0.283E+00
DAV:   3    -0.426860505982E+03   -0.69149E-03   -0.15541E-01  4544   0.180E+00    0.409E+00
DAV:   4    -0.426832910923E+03    0.27595E-01   -0.10872E-01  4768   0.116E+00    0.963E-01
DAV:   5    -0.426836205040E+03   -0.32941E-02   -0.26772E-02  4896   0.759E-01    0.147E+00
DAV:   6    -0.426836623900E+03   -0.41886E-03   -0.32771E-02  4640   0.838E-01    0.144E+00
DAV:   7    -0.426831797481E+03    0.48264E-02   -0.24565E-02  4576   0.750E-01    0.814E-01
DAV:   8    -0.426832811110E+03   -0.10136E-02   -0.17061E-02  4640   0.545E-01    0.962E-01
DAV:   9    -0.426834315438E+03   -0.15043E-02   -0.15738E-02  4672   0.627E-01    0.111E+00
DAV:  10    -0.426830901516E+03    0.34139E-02   -0.11033E-02  4608   0.537E-01    0.441E-01
DAV:  11    -0.426830745212E+03    0.15630E-03   -0.33290E-03  4512   0.276E-01    0.332E-01
DAV:  12    -0.426831280749E+03   -0.53554E-03   -0.30438E-03  4672   0.269E-01    0.520E-01
DAV:  13    -0.426830574863E+03    0.70589E-03   -0.24589E-03  4448   0.239E-01    0.201E-01
DAV:  14    -0.426830479034E+03    0.95829E-04   -0.39547E-04  4384   0.996E-02    0.731E-02
DAV:  15    -0.426830503938E+03   -0.24903E-04   -0.13811E-04  5728   0.564E-02    0.105E-01
DAV:  16    -0.426830511888E+03   -0.79507E-05   -0.17942E-04  4448   0.649E-02    0.111E-01
DAV:  17    -0.426830478676E+03    0.33212E-04   -0.96013E-05  4384   0.507E-02    0.373E-02
DAV:  18    -0.426830483319E+03   -0.46431E-05   -0.26815E-05  4224   0.269E-02    0.444E-02
DAV:  19    -0.426830489229E+03   -0.59099E-05   -0.33601E-05  4192   0.289E-02    0.447E-02
DAV:  20    -0.426830484536E+03    0.46930E-05   -0.19224E-05  4128   0.242E-02    0.186E-02
DAV:  21    -0.426830486893E+03   -0.23576E-05   -0.85705E-06  2496   0.131E-02    0.257E-02
DAV:  22    -0.426830490723E+03   -0.38298E-05   -0.96922E-06  2528   0.144E-02    0.249E-02
DAV:  23    -0.426830491249E+03   -0.52535E-06   -0.46996E-06  2656   0.118E-02
   5 F= -.42683048E+03 E0= -.42668556E+03  d E =-.320663E-01
       N       E                     dE             d eps       ncg     rms          rms(c)
DAV:   1    -0.426832370573E+03   -0.18799E-02   -0.24728E-02  4096   0.200E-01    0.368E-02
DAV:   2    -0.426832621636E+03   -0.25106E-03   -0.72797E-04  5728   0.143E-01    0.259E-01
DAV:   3    -0.426832399102E+03    0.22253E-03   -0.63453E-04  4480   0.141E-01    0.106E-01
DAV:   4    -0.426832429465E+03   -0.30362E-04   -0.28911E-04  5600   0.601E-02    0.154E-01
DAV:   5    -0.426832418167E+03    0.11298E-04   -0.26666E-04  4576   0.640E-02    0.111E-01
DAV:   6    -0.426832441701E+03   -0.23535E-04   -0.23666E-04  4512   0.667E-02    0.132E-01
DAV:   7    -0.426832403051E+03    0.38650E-04   -0.18806E-04  4544   0.613E-02    0.674E-02
DAV:   8    -0.426832403633E+03   -0.58125E-06   -0.77777E-05  4448   0.383E-02    0.515E-02
DAV:   9    -0.426832423919E+03   -0.20287E-04   -0.85518E-05  4608   0.447E-02    0.875E-02
DAV:  10    -0.426832408232E+03    0.15687E-04   -0.72766E-05  4416   0.411E-02    0.401E-02
DAV:  11    -0.426832405842E+03    0.23901E-05   -0.19772E-05  3200   0.234E-02    0.195E-02
DAV:  12    -0.426832411195E+03   -0.53524E-05   -0.14951E-05  2656   0.196E-02    0.397E-02
DAV:  13    -0.426832409861E+03    0.13339E-05   -0.16127E-05  2592   0.188E-02    0.226E-02
DAV:  14    -0.426832409047E+03    0.81384E-06   -0.40798E-06  2304   0.103E-02
   6 F= -.42683240E+03 E0= -.42668750E+03  d E =-.191373E-02
       N       E                     dE             d eps       ncg     rms          rms(c)
DAV:   1    -0.426837915104E+03   -0.55052E-02   -0.22255E-01  4096   0.599E-01    0.103E-01
DAV:   2    -0.426839483453E+03   -0.15683E-02   -0.48785E-03  5824   0.359E-01    0.638E-01
DAV:   3    -0.426838576322E+03    0.90713E-03   -0.47718E-03  4480   0.371E-01    0.559E-01
DAV:   4    -0.426838204440E+03    0.37188E-03   -0.30478E-03  4736   0.197E-01    0.293E-01
DAV:   5    -0.426838342966E+03   -0.13853E-03   -0.14019E-03  4800   0.177E-01    0.329E-01
DAV:   6    -0.426838360542E+03   -0.17576E-04   -0.13005E-03  4576   0.193E-01    0.310E-01
DAV:   7    -0.426838057344E+03    0.30320E-03   -0.81827E-04  4448   0.165E-01    0.939E-02
DAV:   8    -0.426838251227E+03   -0.19388E-03   -0.67235E-04  4384   0.127E-01    0.252E-01
DAV:   9    -0.426838218569E+03    0.32658E-04   -0.89709E-04  4448   0.132E-01    0.222E-01
DAV:  10    -0.426838092190E+03    0.12638E-03   -0.46245E-04  4448   0.100E-01    0.946E-02
DAV:  11    -0.426838101864E+03   -0.96740E-05   -0.16945E-04  4704   0.563E-02    0.819E-02
DAV:  12    -0.426838125183E+03   -0.23320E-04   -0.14746E-04  4512   0.579E-02    0.112E-01
DAV:  13    -0.426838092784E+03    0.32399E-04   -0.11379E-04  4448   0.512E-02    0.450E-02
DAV:  14    -0.426838089107E+03    0.36773E-05   -0.18517E-05  3072   0.216E-02    0.126E-02
DAV:  15    -0.426838090957E+03   -0.18505E-05   -0.48688E-06  2336   0.105E-02    0.182E-02
DAV:  16    -0.426838092324E+03   -0.13662E-05   -0.76917E-06  2560   0.121E-02    0.230E-02
DAV:  17    -0.426838091386E+03    0.93771E-06   -0.44378E-06  2464   0.103E-02
   7 F= -.42683808E+03 E0= -.42669324E+03  d E =-.759488E-02
       N       E                     dE             d eps       ncg     rms          rms(c)
DAV:   1    -0.426848728141E+03   -0.10636E-01   -0.89049E-01  4096   0.120E+00    0.206E-01
DAV:   2    -0.426855097121E+03   -0.63690E-02   -0.19534E-02  5824   0.711E-01    0.131E+00
DAV:   3    -0.426853257396E+03    0.18397E-02   -0.26138E-02  4512   0.762E-01    0.150E+00
DAV:   4    -0.426849781546E+03    0.34759E-02   -0.16604E-02  4512   0.459E-01    0.477E-01
DAV:   5    -0.426850601874E+03   -0.82033E-03   -0.57192E-03  4768   0.360E-01    0.693E-01
DAV:   6    -0.426850565679E+03    0.36195E-04   -0.63721E-03  4480   0.394E-01    0.629E-01
DAV:   7    -0.426849407186E+03    0.11585E-02   -0.37460E-03  4448   0.332E-01    0.231E-01
DAV:   8    -0.426850003469E+03   -0.59628E-03   -0.31335E-03  4544   0.239E-01    0.516E-01
DAV:   9    -0.426850135429E+03   -0.13196E-03   -0.42760E-03  4512   0.276E-01    0.513E-01
DAV:  10    -0.426849457969E+03    0.67746E-03   -0.22131E-03  4576   0.228E-01    0.186E-01
DAV:  11    -0.426849437254E+03    0.20715E-04   -0.60193E-04  4576   0.120E-01    0.137E-01
DAV:  12    -0.426849553948E+03   -0.11669E-03   -0.59773E-04  4512   0.118E-01    0.232E-01
DAV:  13    -0.426849419018E+03    0.13493E-03   -0.50857E-04  4544   0.105E-01    0.968E-02
DAV:  14    -0.426849399645E+03    0.19373E-04   -0.90710E-05  4384   0.482E-02    0.278E-02
DAV:  15    -0.426849406496E+03   -0.68513E-05   -0.21986E-05  4352   0.234E-02    0.378E-02
DAV:  16    -0.426849409694E+03   -0.31973E-05   -0.28820E-05  4032   0.257E-02    0.495E-02
DAV:  17    -0.426849403463E+03    0.62308E-05   -0.18081E-05  2880   0.215E-02    0.166E-02
DAV:  18    -0.426849404092E+03   -0.62934E-06   -0.40347E-06  2304   0.112E-02
   8 F= -.42684940E+03 E0= -.42670468E+03  d E =-.189105E-01
       N       E                     dE             d eps       ncg     rms          rms(c)
DAV:   1    -0.426869031079E+03   -0.19628E-01   -0.35642E+00  4096   0.240E+00    0.403E-01
DAV:   2    -0.426890325870E+03   -0.21295E-01   -0.71645E-02  5792   0.131E+00    0.234E+00
DAV:   3    -0.426872920155E+03    0.17406E-01   -0.52185E-02  4544   0.131E+00    0.806E-01
DAV:   4    -0.426880219882E+03   -0.72997E-02   -0.37360E-02  4960   0.742E-01    0.218E+00
DAV:   5    -0.426879688712E+03    0.53117E-03   -0.57103E-02  4736   0.863E-01    0.186E+00
DAV:   6    -0.426876541592E+03    0.31471E-02   -0.32936E-02  4640   0.825E-01    0.124E+00
DAV:   7    -0.426872172940E+03    0.43687E-02   -0.14496E-02  4480   0.658E-01    0.485E-01
DAV:   8    -0.426874753048E+03   -0.25801E-02   -0.13297E-02  4608   0.510E-01    0.110E+00
DAV:   9    -0.426874685300E+03    0.67749E-04   -0.18655E-02  4512   0.561E-01    0.103E+00
DAV:  10    -0.426872103887E+03    0.25814E-02   -0.89350E-03  4448   0.441E-01    0.364E-01
DAV:  11    -0.426871983229E+03    0.12066E-03   -0.22397E-03  4864   0.226E-01    0.288E-01
DAV:  12    -0.426872390659E+03   -0.40743E-03   -0.22653E-03  4448   0.234E-01    0.445E-01
DAV:  13    -0.426871900617E+03    0.49004E-03   -0.18135E-03  4480   0.207E-01    0.199E-01
DAV:  14    -0.426871805925E+03    0.94692E-04   -0.34299E-04  4320   0.941E-02    0.761E-02
DAV:  15    -0.426871819303E+03   -0.13378E-04   -0.89268E-05  6016   0.455E-02    0.795E-02
DAV:  16    -0.426871830173E+03   -0.10871E-04   -0.10839E-04  4384   0.495E-02    0.960E-02
DAV:  17    -0.426871807876E+03    0.22298E-04   -0.67894E-05  4448   0.414E-02    0.394E-02
DAV:  18    -0.426871807615E+03    0.26094E-06   -0.17217E-05  3840   0.222E-02    0.351E-02
DAV:  19    -0.426871814285E+03   -0.66704E-05   -0.24249E-05  4192   0.251E-02    0.438E-02
DAV:  20    -0.426871809231E+03    0.50546E-05   -0.20664E-05  4096   0.235E-02    0.194E-02
DAV:  21    -0.426871809788E+03   -0.55687E-06   -0.56376E-06  2400   0.106E-02
   9 F= -.42687181E+03 E0= -.42672734E+03  d E =-.413228E-01
       N       E                     dE             d eps       ncg     rms          rms(c)
DAV:   1    -0.426904748563E+03   -0.32939E-01   -0.14280E+01  4096   0.480E+00    0.783E-01
DAV:   2    -0.426977071122E+03   -0.72323E-01   -0.28309E-01  5856   0.232E+00    0.447E+00
DAV:   3    -0.426982060116E+03   -0.49890E-02   -0.39936E-01  4672   0.259E+00    0.598E+00
DAV:   4    -0.426921157318E+03    0.60903E-01   -0.23384E-01  4608   0.177E+00    0.132E+00
DAV:   5    -0.426947465784E+03   -0.26308E-01   -0.10661E-01  4704   0.160E+00    0.340E+00
DAV:   6    -0.426931477859E+03    0.15988E-01   -0.13261E-01  4608   0.165E+00    0.221E+00
DAV:   7    -0.426919451918E+03    0.12026E-01   -0.50157E-02  4416   0.123E+00    0.114E+00
DAV:   8    -0.426930720031E+03   -0.11268E-01   -0.58878E-02  4640   0.102E+00    0.246E+00
DAV:   9    -0.426925547542E+03    0.51725E-02   -0.69638E-02  4640   0.110E+00    0.169E+00
DAV:  10    -0.426917344535E+03    0.82030E-02   -0.24824E-02  4544   0.839E-01    0.583E-01
DAV:  11    -0.426917994276E+03   -0.64974E-03   -0.82059E-03  5056   0.437E-01    0.722E-01
DAV:  12    -0.426918842045E+03   -0.84777E-03   -0.95432E-03  4608   0.474E-01    0.866E-01
DAV:  13    -0.426916887867E+03    0.19542E-02   -0.58967E-03  4512   0.385E-01    0.337E-01
DAV:  14    -0.426916698217E+03    0.18965E-03   -0.79306E-04  4992   0.139E-01    0.191E-01
DAV:  15    -0.426916806800E+03   -0.10858E-03   -0.57969E-04  4672   0.120E-01    0.248E-01
DAV:  16    -0.426916698990E+03    0.10781E-03   -0.59430E-04  4576   0.112E-01    0.144E-01
DAV:  17    -0.426916649211E+03    0.49780E-04   -0.21209E-04  4416   0.700E-02    0.785E-02
DAV:  18    -0.426916664571E+03   -0.15360E-04   -0.92560E-05  4448   0.485E-02    0.888E-02
DAV:  19    -0.426916665359E+03   -0.78839E-06   -0.11967E-04  4416   0.509E-02    0.765E-02
DAV:  20    -0.426916652180E+03    0.13179E-04   -0.65397E-05  4512   0.379E-02    0.427E-02
DAV:  21    -0.426916655215E+03   -0.30346E-05   -0.25466E-05  4000   0.237E-02    0.438E-02
DAV:  22    -0.426916659130E+03   -0.39158E-05   -0.22325E-05  3776   0.243E-02    0.420E-02
DAV:  23    -0.426916654937E+03    0.41935E-05   -0.13332E-05  2848   0.206E-02    0.130E-02
DAV:  24    -0.426916655992E+03   -0.10550E-05   -0.22013E-06  2400   0.812E-03    0.125E-02
DAV:  25    -0.426916658784E+03   -0.27923E-05   -0.32031E-06  2496   0.907E-03    0.154E-02
DAV:  26    -0.426916659238E+03   -0.45424E-06   -0.24226E-06  2560   0.775E-03
  10 F= -.42691665E+03 E0= -.42677271E+03  d E =-.861696E-01
       N       E                     dE             d eps       ncg     rms          rms(c)
DAV:   1    -0.426954955607E+03   -0.38297E-01   -0.57403E+01  4096   0.966E+00    0.156E+00
DAV:   2    -0.427305466250E+03   -0.35051E+00   -0.15091E+00  5792   0.460E+00    0.110E+01
DAV:   3    -0.427250565250E+03    0.54901E-01   -0.20076E+00  4704   0.504E+00    0.108E+01
DAV:   4    -0.427038648537E+03    0.21192E+00   -0.84198E-01  4544   0.364E+00    0.308E+00
DAV:   5    -0.427129337688E+03   -0.90689E-01   -0.49861E-01  4736   0.326E+00    0.672E+00
DAV:   6    -0.427085125134E+03    0.44213E-01   -0.57206E-01  4736   0.319E+00    0.535E+00
DAV:   7    -0.427032138229E+03    0.52987E-01   -0.27810E-01  4800   0.234E+00    0.309E+00
DAV:   8    -0.427052014669E+03   -0.19876E-01   -0.18427E-01  4608   0.199E+00    0.392E+00
DAV:   9    -0.427058048676E+03   -0.60340E-02   -0.24147E-01  4736   0.223E+00    0.386E+00
DAV:  10    -0.427020724969E+03    0.37324E-01   -0.13673E-01  4768   0.186E+00    0.193E+00
DAV:  11    -0.427019969857E+03    0.75511E-03   -0.41714E-02  4736   0.104E+00    0.186E+00
DAV:  12    -0.427025108842E+03   -0.51390E-02   -0.49817E-02  4768   0.112E+00    0.211E+00
DAV:  13    -0.427013618610E+03    0.11490E-01   -0.33061E-02  4512   0.952E-01    0.834E-01
DAV:  14    -0.427012490625E+03    0.11280E-02   -0.50019E-03  4768   0.368E-01    0.547E-01
DAV:  15    -0.427012895934E+03   -0.40531E-03   -0.41722E-03  4960   0.285E-01    0.625E-01
DAV:  16    -0.427012182586E+03    0.71335E-03   -0.44192E-03  4608   0.279E-01    0.323E-01
DAV:  17    -0.427011972649E+03    0.20994E-03   -0.10016E-03  4480   0.155E-01    0.196E-01
DAV:  18    -0.427012049850E+03   -0.77201E-04   -0.51323E-04  4448   0.115E-01    0.224E-01
DAV:  19    -0.427011969576E+03    0.80274E-04   -0.55664E-04  4448   0.115E-01    0.141E-01
DAV:  20    -0.427011943717E+03    0.25859E-04   -0.24307E-04  4416   0.734E-02    0.981E-02
DAV:  21    -0.427011966650E+03   -0.22933E-04   -0.16178E-04  4480   0.621E-02    0.119E-01
DAV:  22    -0.427011965395E+03    0.12548E-05   -0.14784E-04  4352   0.617E-02    0.877E-02
DAV:  23    -0.427011951033E+03    0.14362E-04   -0.65736E-05  4544   0.419E-02    0.444E-02
DAV:  24    -0.427011958370E+03   -0.73364E-05   -0.30142E-05  4192   0.280E-02    0.507E-02
DAV:  25    -0.427011971127E+03   -0.12758E-04   -0.28838E-05  4288   0.286E-02    0.385E-02
DAV:  26    -0.427011970577E+03    0.55037E-06   -0.12823E-05  3488   0.206E-02    0.972E-03
DAV:  27    -0.427011975117E+03   -0.45400E-05   -0.32478E-06  2560   0.985E-03    0.152E-02
DAV:  28    -0.427011984012E+03   -0.88955E-05   -0.30270E-06  2816   0.903E-03    0.927E-03
DAV:  29    -0.427011985527E+03   -0.15144E-05   -0.11310E-06  2688   0.559E-03    0.472E-03
DAV:  30    -0.427011990581E+03   -0.50539E-05   -0.99189E-07  2592   0.519E-03    0.915E-03
DAV:  31    -0.427011997301E+03   -0.67204E-05   -0.11915E-06  2816   0.543E-03    0.541E-03
DAV:  32    -0.427011998532E+03   -0.12310E-05   -0.33430E-07  2624   0.293E-03    0.340E-03
DAV:  33    -0.427012005655E+03   -0.71226E-05   -0.52768E-07  2752   0.316E-03    0.570E-03
DAV:  34    -0.427012008329E+03   -0.26746E-05   -0.40201E-07  2656   0.329E-03    0.222E-03
DAV:  35    -0.427012009755E+03   -0.14259E-05   -0.14671E-07  2496   0.187E-03    0.296E-03
DAV:  36    -0.427012015236E+03   -0.54811E-05   -0.36655E-07  2720   0.201E-03    0.320E-03
DAV:  37    -0.427012016183E+03   -0.94638E-06   -0.12047E-07  2688   0.165E-03
  11 F= -.42701188E+03 E0= -.42686899E+03  d E =-.181391E+00
       N       E                     dE             d eps       ncg     rms          rms(c)
DAV:   1    -0.426926678350E+03    0.85337E-01   -0.23409E+02  4096   0.198E+01    0.339E+00
DAV:   2    -0.430130815592E+03   -0.32041E+01   -0.10993E+01  5984   0.137E+01    0.308E+01
DAV:   3    -0.428504442850E+03    0.16264E+01   -0.11657E+01  5312   0.140E+01    0.237E+01
DAV:   4    -0.427492835320E+03    0.10116E+01   -0.45252E+00  4768   0.839E+00    0.979E+00
DAV:   5    -0.427689050220E+03   -0.19621E+00   -0.23430E+00  4864   0.690E+00    0.129E+01
DAV:   6    -0.427577029934E+03    0.11202E+00   -0.25234E+00  4640   0.693E+00    0.110E+01
DAV:   7    -0.427391638723E+03    0.18539E+00   -0.10641E+00  4672   0.501E+00    0.806E+00
DAV:   8    -0.427389320850E+03    0.23179E-02   -0.71415E-01  4736   0.396E+00    0.780E+00
DAV:   9    -0.427399309292E+03   -0.99884E-02   -0.90793E-01  4640   0.433E+00    0.720E+00
DAV:  10    -0.427293335307E+03    0.10597E+00   -0.61377E-01  4768   0.404E+00    0.490E+00
DAV:  11    -0.427292835046E+03    0.50026E-03   -0.27531E-01  4608   0.262E+00    0.466E+00
DAV:  12    -0.427313579049E+03   -0.20744E-01   -0.32218E-01  4800   0.279E+00    0.519E+00
DAV:  13    -0.427251341184E+03    0.62238E-01   -0.23012E-01  4512   0.238E+00    0.240E+00
DAV:  14    -0.427245951187E+03    0.53900E-02   -0.57746E-02  4832   0.115E+00    0.193E+00
DAV:  15    -0.427248740974E+03   -0.27898E-02   -0.57503E-02  4640   0.109E+00    0.200E+00
DAV:  16    -0.427238258668E+03    0.10482E-01   -0.36850E-02  4672   0.945E-01    0.777E-01
DAV:  17    -0.427237230042E+03    0.10286E-02   -0.52273E-03  4864   0.382E-01    0.555E-01
DAV:  18    -0.427238264040E+03   -0.10340E-02   -0.61210E-03  4480   0.365E-01    0.816E-01
DAV:  19    -0.427236860740E+03    0.14033E-02   -0.57356E-03  4352   0.337E-01    0.357E-01
DAV:  20    -0.427236683935E+03    0.17680E-03   -0.13443E-03  4352   0.179E-01    0.247E-01
DAV:  21    -0.427236942123E+03   -0.25819E-03   -0.13404E-03  4544   0.180E-01    0.345E-01
DAV:  22    -0.427236774209E+03    0.16791E-03   -0.12670E-03  4512   0.181E-01    0.224E-01
DAV:  23    -0.427236691911E+03    0.82298E-04   -0.46696E-04  4480   0.119E-01    0.153E-01
DAV:  24    -0.427236740320E+03   -0.48409E-04   -0.26441E-04  4544   0.865E-02    0.169E-01
DAV:  25    -0.427236707089E+03    0.33231E-04   -0.23820E-04  4448   0.795E-02    0.827E-02
DAV:  26    -0.427236701252E+03    0.58364E-05   -0.54352E-05  4192   0.402E-02    0.551E-02
DAV:  27    -0.427236732637E+03   -0.31385E-04   -0.40173E-05  4256   0.370E-02    0.653E-02
DAV:  28    -0.427236737869E+03   -0.52316E-05   -0.31239E-05  4320   0.328E-02    0.221E-02
DAV:  29    -0.427236742502E+03   -0.46333E-05   -0.74831E-06  3104   0.140E-02    0.200E-02
DAV:  30    -0.427236767021E+03   -0.24519E-04   -0.85095E-06  3360   0.146E-02    0.240E-02
DAV:  31    -0.427236773327E+03   -0.63064E-05   -0.57286E-06  3008   0.137E-02    0.939E-03
DAV:  32    -0.427236781872E+03   -0.85447E-05   -0.24189E-06  2624   0.893E-03    0.126E-02
DAV:  33    -0.427236806732E+03   -0.24860E-04   -0.34026E-06  3232   0.772E-03    0.109E-02
DAV:  34    -0.427236811981E+03   -0.52485E-05   -0.10008E-06  2784   0.539E-03    0.102E-02
DAV:  35    -0.427236834534E+03   -0.22554E-04   -0.20695E-06  3072   0.618E-03    0.106E-02
DAV:  36    -0.427236844313E+03   -0.97783E-05   -0.13542E-06  2848   0.594E-03    0.426E-03
DAV:  37    -0.427236849669E+03   -0.53564E-05   -0.60279E-07  2496   0.380E-03    0.632E-03
DAV:  38    -0.427236863058E+03   -0.13390E-04   -0.12786E-06  3104   0.375E-03    0.430E-03
DAV:  39    -0.427236864879E+03   -0.18202E-05   -0.34813E-07  2720   0.273E-03    0.303E-03
DAV:  40    -0.427236870331E+03   -0.54525E-05   -0.45203E-07  2688   0.278E-03    0.494E-03
DAV:  41    -0.427236873479E+03   -0.31479E-05   -0.36183E-07  2624   0.280E-03    0.204E-03
DAV:  42    -0.427236874406E+03   -0.92677E-06   -0.12753E-07  2560   0.149E-03
  12 F= -.42723572E+03 E0= -.42709490E+03  d E =-.405231E+00
       N       E                     dE             d eps       ncg     rms          rms(c)
DAV:   1    -0.425755888729E+03    0.14810E+01   -0.10145E+03  4096   0.430E+01    0.767E+00
DAV:   2    -0.442518473114E+03   -0.16763E+02   -0.54463E+01  6240   0.387E+01    0.519E+01
DAV:   3    -0.436507846026E+03    0.60106E+01   -0.43274E+01  5472   0.366E+01    0.493E+01
DAV:   4    -0.429231150716E+03    0.72767E+01   -0.20203E+01  4736   0.222E+01    0.247E+01
DAV:   5    -0.428424583632E+03    0.80657E+00   -0.93963E+00  6240   0.138E+01    0.176E+01
DAV:   6    -0.428808285653E+03   -0.38370E+00   -0.82498E+00  4832   0.129E+01    0.195E+01
DAV:   7    -0.428717628172E+03    0.90657E-01   -0.55655E+00  4736   0.110E+01    0.217E+01
DAV:   8    -0.428037433744E+03    0.68019E+00   -0.32141E+00  4800   0.860E+00    0.140E+01
DAV:   9    -0.427893931580E+03    0.14350E+00   -0.24186E+00  4672   0.794E+00    0.107E+01
DAV:  10    -0.427999760229E+03   -0.10583E+00   -0.27884E+00  4704   0.821E+00    0.139E+01
DAV:  11    -0.427840486232E+03    0.15927E+00   -0.11312E+00  4800   0.577E+00    0.114E+01
DAV:  12    -0.427822337573E+03    0.18149E-01   -0.13189E+00  4704   0.547E+00    0.116E+01
DAV:  13    -0.427634577228E+03    0.18776E+00   -0.12222E+00  4704   0.487E+00    0.702E+00
DAV:  14    -0.427626683446E+03    0.78938E-02   -0.62570E-01  4960   0.368E+00    0.600E+00
DAV:  15    -0.427616808187E+03    0.98753E-02   -0.46588E-01  4672   0.356E+00    0.560E+00
DAV:  16    -0.427548897847E+03    0.67910E-01   -0.27504E-01  4640   0.283E+00    0.402E+00
DAV:  17    -0.427530948609E+03    0.17949E-01   -0.60051E-02  4544   0.131E+00    0.308E+00
DAV:  18    -0.427524951008E+03    0.59976E-02   -0.56001E-02  4640   0.126E+00    0.265E+00
DAV:  19    -0.427511315995E+03    0.13635E-01   -0.37697E-02  4480   0.957E-01    0.135E+00
DAV:  20    -0.427509809204E+03    0.15068E-02   -0.13626E-02  4640   0.538E-01    0.115E+00
DAV:  21    -0.427510382948E+03   -0.57374E-03   -0.11006E-02  5056   0.526E-01    0.112E+00
DAV:  22    -0.427508693861E+03    0.16891E-02   -0.93486E-03  4544   0.506E-01    0.791E-01
DAV:  23    -0.427508077190E+03    0.61667E-03   -0.31242E-03  4512   0.327E-01    0.667E-01
DAV:  24    -0.427508280344E+03   -0.20315E-03   -0.25337E-03  5120   0.272E-01    0.665E-01
DAV:  25    -0.427507623600E+03    0.65674E-03   -0.21594E-03  4640   0.254E-01    0.459E-01
DAV:  26    -0.427507414166E+03    0.20943E-03   -0.79609E-04  4800   0.133E-01    0.352E-01
DAV:  27    -0.427507477281E+03   -0.63114E-04   -0.67122E-04  4608   0.134E-01    0.363E-01
DAV:  28    -0.427507245677E+03    0.23160E-03   -0.51073E-04  4480   0.124E-01    0.177E-01
DAV:  29    -0.427507237964E+03    0.77121E-05   -0.11887E-04  5888   0.542E-02    0.147E-01
DAV:  30    -0.427507301322E+03   -0.63358E-04   -0.14661E-04  4288   0.636E-02    0.131E-01
DAV:  31    -0.427507303030E+03   -0.17074E-05   -0.14014E-04  4384   0.600E-02    0.501E-02
DAV:  32    -0.427507315659E+03   -0.12630E-04   -0.37206E-05  4288   0.310E-02    0.463E-02
DAV:  33    -0.427507381893E+03   -0.66234E-04   -0.34563E-05  4320   0.320E-02    0.508E-02
DAV:  34    -0.427507396626E+03   -0.14733E-04   -0.24819E-05  4416   0.291E-02    0.173E-02
DAV:  35    -0.427507418457E+03   -0.21831E-04   -0.11404E-05  3680   0.186E-02    0.284E-02
DAV:  36    -0.427507465335E+03   -0.46878E-04   -0.11719E-05  3872   0.169E-02    0.244E-02
DAV:  37    -0.427507476502E+03   -0.11167E-04   -0.51750E-06  3264   0.131E-02    0.229E-02
DAV:  38    -0.427507505565E+03   -0.29063E-04   -0.48430E-06  3328   0.107E-02    0.267E-02
DAV:  39    -0.427507517906E+03   -0.12341E-04   -0.36600E-06  3072   0.100E-02    0.160E-02
DAV:  40    -0.427507527395E+03   -0.94891E-05   -0.13792E-06  2752   0.605E-03    0.150E-02
DAV:  41    -0.427507562016E+03   -0.34621E-04   -0.42377E-06  3488   0.681E-03    0.876E-03
DAV:  42    -0.427507568176E+03   -0.61600E-05   -0.10054E-06  2912   0.515E-03    0.632E-03
DAV:  43    -0.427507582967E+03   -0.14791E-04   -0.14347E-06  3104   0.477E-03    0.796E-03
DAV:  44    -0.427507588260E+03   -0.52932E-05   -0.81197E-07  2848   0.451E-03    0.408E-03
DAV:  45    -0.427507592491E+03   -0.42308E-05   -0.48790E-07  2560   0.324E-03    0.541E-03
DAV:  46    -0.427507598991E+03   -0.65003E-05   -0.84379E-07  2944   0.346E-03    0.519E-03
DAV:  47    -0.427507598568E+03    0.42259E-06   -0.49192E-07  2496   0.329E-03
  13 F= -.42750135E+03 E0= -.42736394E+03  d E =-.670866E+00
       N       E                     dE             d eps       ncg     rms          rms(c)
DAV:   1    -0.427413224752E+03    0.94374E-01   -0.97920E+01  4096   0.126E+01    0.267E+00
DAV:   2    -0.428490045972E+03   -0.10768E+01   -0.41659E+00  4992   0.110E+01    0.144E+01
DAV:   3    -0.429738863336E+03   -0.12488E+01   -0.85022E+00  5632   0.124E+01    0.321E+01
DAV:   4    -0.427588510263E+03    0.21504E+01   -0.72246E+00  4864   0.951E+00    0.480E+00
DAV:   5    -0.427753536635E+03   -0.16503E+00   -0.13698E+00  6048   0.488E+00    0.991E+00
DAV:   6    -0.427695694404E+03    0.57842E-01   -0.14135E+00  4704   0.488E+00    0.827E+00
DAV:   7    -0.427541166073E+03    0.15453E+00   -0.73719E-01  4704   0.374E+00    0.376E+00
DAV:   8    -0.427530695863E+03    0.10470E-01   -0.27571E-01  4608   0.227E+00    0.310E+00
DAV:   9    -0.427581557121E+03   -0.50861E-01   -0.31043E-01  4608   0.264E+00    0.506E+00
DAV:  10    -0.427520955900E+03    0.60601E-01   -0.25746E-01  4640   0.247E+00    0.223E+00
DAV:  11    -0.427514732888E+03    0.62230E-02   -0.82176E-02  4480   0.147E+00    0.174E+00
DAV:  12    -0.427531857397E+03   -0.17125E-01   -0.10974E-01  4640   0.157E+00    0.300E+00
DAV:  13    -0.427511308803E+03    0.20549E-01   -0.96430E-02  4576   0.142E+00    0.137E+00
DAV:  14    -0.427507282336E+03    0.40265E-02   -0.22865E-02  4736   0.725E-01    0.761E-01
DAV:  15    -0.427507970007E+03   -0.68767E-03   -0.11018E-02  4736   0.528E-01    0.902E-01
DAV:  16    -0.427506265943E+03    0.17041E-02   -0.81901E-03  4576   0.461E-01    0.545E-01
DAV:  17    -0.427505573476E+03    0.69247E-03   -0.25285E-03  5152   0.247E-01    0.235E-01
DAV:  18    -0.427505792705E+03   -0.21923E-03   -0.12999E-03  4544   0.182E-01    0.337E-01
DAV:  19    -0.427505603653E+03    0.18905E-03   -0.12763E-03  4576   0.177E-01    0.197E-01
DAV:  20    -0.427505496036E+03    0.10762E-03   -0.35587E-04  4416   0.106E-01    0.799E-02
DAV:  21    -0.427505560339E+03   -0.64303E-04   -0.23521E-04  4704   0.842E-02    0.154E-01
DAV:  22    -0.427505535819E+03    0.24520E-04   -0.30347E-04  4384   0.859E-02    0.113E-01
DAV:  23    -0.427505516515E+03    0.19305E-04   -0.12674E-04  4448   0.576E-02    0.664E-02
DAV:  24    -0.427505535631E+03   -0.19116E-04   -0.10414E-04  4448   0.525E-02    0.104E-01
DAV:  25    -0.427505526940E+03    0.86903E-05   -0.73781E-05  4352   0.469E-02    0.552E-02
DAV:  26    -0.427505522420E+03    0.45200E-05   -0.19871E-05  4224   0.261E-02    0.356E-02
DAV:  27    -0.427505527681E+03   -0.52602E-05   -0.85194E-06  2784   0.170E-02    0.350E-02
DAV:  28    -0.427505536129E+03   -0.84484E-05   -0.10985E-05  2848   0.181E-02    0.211E-02
DAV:  29    -0.427505538051E+03   -0.19222E-05   -0.37201E-06  2688   0.114E-02    0.127E-02
DAV:  30    -0.427505541874E+03   -0.38227E-05   -0.18457E-06  2368   0.729E-03    0.133E-02
DAV:  31    -0.427505547461E+03   -0.55876E-05   -0.17939E-06  2528   0.698E-03    0.707E-03
DAV:  32    -0.427505549900E+03   -0.24384E-05   -0.81672E-07  2560   0.500E-03    0.608E-03
DAV:  33    -0.427505561904E+03   -0.12004E-04   -0.13220E-06  2624   0.599E-03    0.109E-02
DAV:  34    -0.427505566013E+03   -0.41098E-05   -0.11235E-06  2656   0.583E-03    0.414E-03
DAV:  35    -0.427505568492E+03   -0.24781E-05   -0.35924E-07  2304   0.329E-03    0.521E-03
DAV:  36    -0.427505576847E+03   -0.83557E-05   -0.47458E-07  2656   0.298E-03    0.432E-03
DAV:  37    -0.427505578399E+03   -0.15519E-05   -0.21619E-07  2656   0.242E-03    0.313E-03
DAV:  38    -0.427505584334E+03   -0.59348E-05   -0.28701E-07  2464   0.253E-03    0.471E-03
DAV:  39    -0.427505589024E+03   -0.46900E-05   -0.34363E-07  2592   0.275E-03    0.180E-03
DAV:  40    -0.427505590609E+03   -0.15848E-05   -0.13045E-07  2528   0.162E-03    0.236E-03
DAV:  41    -0.427505594746E+03   -0.41377E-05   -0.18746E-07  2528   0.162E-03    0.189E-03
DAV:  42    -0.427505595277E+03   -0.53066E-06   -0.67104E-08  2592   0.112E-03
  14 F= -.42750115E+03 E0= -.42736279E+03  d E =-.670666E+00
       N       E                     dE             d eps       ncg     rms          rms(c)
DAV:   1    -0.427506116686E+03   -0.52194E-03   -0.21331E+01  4096   0.586E+00    0.938E-01
DAV:   2    -0.427584029265E+03   -0.77913E-01   -0.42556E-01  5984   0.239E+00    0.465E+00
DAV:   3    -0.427631176593E+03   -0.47147E-01   -0.61414E-01  4672   0.297E+00    0.743E+00
DAV:   4    -0.427540502225E+03    0.90674E-01   -0.43703E-01  4800   0.248E+00    0.242E+00
DAV:   5    -0.427572069826E+03   -0.31568E-01   -0.20970E-01  4800   0.212E+00    0.419E+00
DAV:   6    -0.427540513530E+03    0.31556E-01   -0.19641E-01  4704   0.190E+00    0.262E+00
DAV:   7    -0.427530217134E+03    0.10296E-01   -0.80793E-02  4544   0.120E+00    0.178E+00
DAV:   8    -0.427543007447E+03   -0.12790E-01   -0.78668E-02  4672   0.128E+00    0.267E+00
DAV:   9    -0.427536349491E+03    0.66580E-02   -0.92769E-02  4704   0.137E+00    0.208E+00
DAV:  10    -0.427525659659E+03    0.10690E-01   -0.44822E-02  4576   0.100E+00    0.901E-01
DAV:  11    -0.427527705626E+03   -0.20460E-02   -0.20145E-02  4640   0.676E-01    0.122E+00
DAV:  12    -0.427528796043E+03   -0.10904E-02   -0.24861E-02  4640   0.730E-01    0.127E+00
DAV:  13    -0.427524312305E+03    0.44837E-02   -0.12515E-02  4544   0.590E-01    0.469E-01
DAV:  14    -0.427524014073E+03    0.29823E-03   -0.18367E-03  5120   0.234E-01    0.326E-01
DAV:  15    -0.427524131303E+03   -0.11723E-03   -0.12872E-03  5312   0.184E-01    0.356E-01
DAV:  16    -0.427523955231E+03    0.17607E-03   -0.13528E-03  4576   0.177E-01    0.232E-01
DAV:  17    -0.427523818812E+03    0.13642E-03   -0.43542E-04  4480   0.113E-01    0.117E-01
DAV:  18    -0.427523844723E+03   -0.25912E-04   -0.17403E-04  5408   0.629E-02    0.133E-01
DAV:  19    -0.427523866295E+03   -0.21571E-04   -0.26721E-04  4352   0.755E-02    0.138E-01
DAV:  20    -0.427523825746E+03    0.40549E-04   -0.18777E-04  4544   0.667E-02    0.618E-02
DAV:  21    -0.427523825042E+03    0.70328E-06   -0.46473E-05  4512   0.342E-02    0.484E-02
DAV:  22    -0.427523840061E+03   -0.15019E-04   -0.37292E-05  4352   0.334E-02    0.627E-02
DAV:  23    -0.427523834176E+03    0.58858E-05   -0.30857E-05  4416   0.305E-02    0.343E-02
DAV:  24    -0.427523834733E+03   -0.55731E-06   -0.86850E-06  2496   0.148E-02
  15 F= -.42751871E+03 E0= -.42738081E+03  d E =-.688229E+00
       N       E                     dE             d eps       ncg     rms          rms(c)
DAV:   1    -0.427513928999E+03    0.99052E-02   -0.49749E+01  4096   0.876E+00    0.153E+00
DAV:   2    -0.427658486102E+03   -0.14456E+00   -0.99448E-01  5856   0.308E+00    0.606E+00
DAV:   3    -0.427807375561E+03   -0.14889E+00   -0.13192E+00  4832   0.429E+00    0.111E+01
DAV:   4    -0.427632403627E+03    0.17497E+00   -0.11852E+00  4800   0.405E+00    0.498E+00
DAV:   5    -0.427700622931E+03   -0.68219E-01   -0.62573E-01  4960   0.351E+00    0.701E+00
DAV:   6    -0.427595660261E+03    0.10496E+00   -0.49449E-01  4800   0.313E+00    0.371E+00
DAV:   7    -0.427578167879E+03    0.17492E-01   -0.17858E-01  5056   0.187E+00    0.280E+00
DAV:   8    -0.427636140206E+03   -0.57972E-01   -0.26435E-01  4768   0.235E+00    0.530E+00
DAV:   9    -0.427588247270E+03    0.47893E-01   -0.29131E-01  4736   0.238E+00    0.299E+00
DAV:  10    -0.427566960248E+03    0.21287E-01   -0.92432E-02  4608   0.157E+00    0.157E+00
DAV:  11    -0.427576215753E+03   -0.92555E-02   -0.61699E-02  4544   0.124E+00    0.233E+00
DAV:  12    -0.427570930057E+03    0.52857E-02   -0.65105E-02  4608   0.125E+00    0.179E+00
DAV:  13    -0.427561916429E+03    0.90136E-02   -0.26130E-02  4544   0.841E-01    0.624E-01
DAV:  14    -0.427561557291E+03    0.35914E-03   -0.50951E-03  5376   0.335E-01    0.501E-01
DAV:  15    -0.427561980578E+03   -0.42329E-03   -0.45889E-03  4896   0.316E-01    0.581E-01
DAV:  16    -0.427561256024E+03    0.72455E-03   -0.38901E-03  4544   0.283E-01    0.295E-01
DAV:  17    -0.427561073911E+03    0.18211E-03   -0.81944E-04  4480   0.149E-01    0.159E-01
DAV:  18    -0.427561151077E+03   -0.77166E-04   -0.44842E-04  5248   0.107E-01    0.207E-01
DAV:  19    -0.427561184825E+03   -0.33748E-04   -0.66664E-04  4480   0.121E-01    0.201E-01
DAV:  20    -0.427561103780E+03    0.81045E-04   -0.40999E-04  4640   0.992E-02    0.938E-02
DAV:  21    -0.427561108313E+03   -0.45334E-05   -0.12498E-04  4896   0.554E-02    0.835E-02
DAV:  22    -0.427561152083E+03   -0.43769E-04   -0.11393E-04  4320   0.552E-02    0.103E-01
DAV:  23    -0.427561140581E+03    0.11502E-04   -0.88510E-05  4512   0.504E-02    0.502E-02
DAV:  24    -0.427561143434E+03   -0.28537E-05   -0.20872E-05  3936   0.237E-02    0.394E-02
DAV:  25    -0.427561173817E+03   -0.30382E-04   -0.25273E-05  4192   0.261E-02    0.430E-02
DAV:  26    -0.427561182313E+03   -0.84962E-05   -0.18074E-05  4160   0.234E-02    0.145E-02
DAV:  27    -0.427561187269E+03   -0.49558E-05   -0.35179E-06  2560   0.973E-03    0.139E-02
DAV:  28    -0.427561212491E+03   -0.25222E-04   -0.50272E-06  3232   0.110E-02    0.188E-02
DAV:  29    -0.427561223334E+03   -0.10843E-04   -0.34557E-06  2912   0.102E-02    0.964E-03
DAV:  30    -0.427561230879E+03   -0.75449E-05   -0.13488E-06  2592   0.609E-03    0.111E-02
DAV:  31    -0.427561257447E+03   -0.26569E-04   -0.31867E-06  3264   0.659E-03    0.835E-03
DAV:  32    -0.427561261478E+03   -0.40302E-05   -0.92335E-07  2752   0.482E-03    0.381E-03
DAV:  33    -0.427561273772E+03   -0.12294E-04   -0.12516E-06  2816   0.507E-03    0.875E-03
DAV:  34    -0.427561283096E+03   -0.93237E-05   -0.13917E-06  3008   0.527E-03    0.378E-03
DAV:  35    -0.427561284899E+03   -0.18038E-05   -0.35883E-07  2720   0.285E-03    0.365E-03
DAV:  36    -0.427561290750E+03   -0.58505E-05   -0.54276E-07  2656   0.289E-03    0.518E-03
DAV:  37    -0.427561292923E+03   -0.21733E-05   -0.33589E-07  2688   0.283E-03    0.269E-03
DAV:  38    -0.427561294427E+03   -0.15038E-05   -0.15760E-07  2400   0.180E-03    0.311E-03
DAV:  39    -0.427561297634E+03   -0.32068E-05   -0.28245E-07  2624   0.181E-03    0.141E-03
DAV:  40    -0.427561298098E+03   -0.46392E-06   -0.69647E-08  2624   0.108E-03
  16 F= -.42755380E+03 E0= -.42741652E+03  d E =-.350836E-01
       N       E                     dE             d eps       ncg     rms          rms(c)
DAV:   1    -0.427561461188E+03   -0.16355E-03   -0.84426E-01  4096   0.113E+00    0.222E-01
DAV:   2    -0.427566200803E+03   -0.47396E-02   -0.19094E-02  5888   0.658E-01    0.103E+00
DAV:   3    -0.427567527159E+03   -0.13264E-02   -0.31169E-02  4768   0.785E-01    0.175E+00
DAV:   4    -0.427563077639E+03    0.44495E-02   -0.26788E-02  5056   0.559E-01    0.694E-01
DAV:   5    -0.427564894596E+03   -0.18170E-02   -0.11483E-02  4704   0.500E-01    0.103E+00
DAV:   6    -0.427562760136E+03    0.21345E-02   -0.90642E-03  4672   0.465E-01    0.527E-01
DAV:   7    -0.427562240031E+03    0.52011E-03   -0.36318E-03  4480   0.310E-01    0.361E-01
DAV:   8    -0.427563000447E+03   -0.76042E-03   -0.45287E-03  4576   0.284E-01    0.646E-01
DAV:   9    -0.427562638603E+03    0.36184E-03   -0.50582E-03  4672   0.302E-01    0.455E-01
DAV:  10    -0.427562030383E+03    0.60822E-03   -0.19926E-03  4512   0.231E-01    0.164E-01
DAV:  11    -0.427562120166E+03   -0.89783E-04   -0.74198E-04  4928   0.126E-01    0.198E-01
DAV:  12    -0.427562238213E+03   -0.11805E-03   -0.10212E-03  4608   0.141E-01    0.275E-01
DAV:  13    -0.427562039930E+03    0.19828E-03   -0.68387E-04  4544   0.123E-01    0.970E-02
DAV:  14    -0.427562025749E+03    0.14181E-04   -0.10051E-04  4576   0.493E-02    0.419E-02
DAV:  15    -0.427562034292E+03   -0.85428E-05   -0.46118E-05  4480   0.352E-02    0.570E-02
DAV:  16    -0.427562030116E+03    0.41761E-05   -0.45426E-05  4416   0.329E-02    0.467E-02
DAV:  17    -0.427562025256E+03    0.48603E-05   -0.16265E-05  2944   0.210E-02    0.227E-02
DAV:  18    -0.427562026207E+03   -0.95113E-06   -0.52544E-06  2304   0.126E-02
  17 F= -.42755468E+03 E0= -.42741733E+03  d E =-.359699E-01
       N       E                     dE             d eps       ncg     rms          rms(c)
DAV:   1    -0.427623989082E+03   -0.61964E-01   -0.13955E+00  4096   0.166E+00    0.199E-01
DAV:   2    -0.427637515035E+03   -0.13526E-01   -0.43897E-02  5248   0.104E+00    0.203E+00
DAV:   3    -0.427629726191E+03    0.77888E-02   -0.49163E-02  4544   0.987E-01    0.153E+00
DAV:   4    -0.427625879883E+03    0.38463E-02   -0.18135E-02  4544   0.489E-01    0.517E-01
DAV:   5    -0.427625617928E+03    0.26195E-03   -0.47675E-03  4672   0.313E-01    0.406E-01
DAV:   6    -0.427626121882E+03   -0.50395E-03   -0.36530E-03  4576   0.294E-01    0.568E-01
DAV:   7    -0.427625508496E+03    0.61339E-03   -0.34664E-03  4352   0.271E-01    0.343E-01
DAV:   8    -0.427625399245E+03    0.10925E-03   -0.21300E-03  4544   0.209E-01    0.272E-01
DAV:   9    -0.427626065966E+03   -0.66672E-03   -0.29848E-03  4608   0.259E-01    0.541E-01
DAV:  10    -0.427625652373E+03    0.41359E-03   -0.34233E-03  4640   0.275E-01    0.395E-01
DAV:  11    -0.427625308617E+03    0.34376E-03   -0.14650E-03  4608   0.196E-01    0.200E-01
DAV:  12    -0.427625447064E+03   -0.13845E-03   -0.10063E-03  4672   0.164E-01    0.267E-01
DAV:  13    -0.427625394221E+03    0.52843E-04   -0.10673E-03  4832   0.158E-01    0.237E-01
DAV:  14    -0.427625241214E+03    0.15301E-03   -0.48416E-04  4544   0.113E-01    0.890E-02
DAV:  15    -0.427625234506E+03    0.67082E-05   -0.92006E-05  5984   0.433E-02    0.357E-02
DAV:  16    -0.427625240870E+03   -0.63641E-05   -0.34165E-05  4704   0.308E-02    0.491E-02
DAV:  17    -0.427625237678E+03    0.31921E-05   -0.28835E-05  4480   0.273E-02    0.375E-02
DAV:  18    -0.427625235115E+03    0.25632E-05   -0.14272E-05  2688   0.181E-02    0.237E-02
DAV:  19    -0.427625235773E+03   -0.65772E-06   -0.57728E-06  2336   0.122E-02
  18 F= -.42761772E+03 E0= -.42748031E+03  d E =-.630401E-01
       N       E                     dE             d eps       ncg     rms          rms(c)
DAV:   1    -0.427777824304E+03   -0.15259E+00   -0.12565E+01  4096   0.499E+00    0.575E-01
DAV:   2    -0.427886410146E+03   -0.10859E+00   -0.37603E-01  5600   0.289E+00    0.577E+00
DAV:   3    -0.427843921066E+03    0.42489E-01   -0.46811E-01  4448   0.281E+00    0.522E+00
DAV:   4    -0.427794609968E+03    0.49311E-01   -0.17695E-01  4480   0.157E+00    0.127E+00
DAV:   5    -0.427794570696E+03    0.39272E-04   -0.41707E-02  4768   0.932E-01    0.143E+00
DAV:   6    -0.427798345387E+03   -0.37747E-02   -0.41762E-02  4608   0.925E-01    0.179E+00
DAV:   7    -0.427792122538E+03    0.62228E-02   -0.35200E-02  4512   0.842E-01    0.100E+00
DAV:   8    -0.427791211676E+03    0.91086E-03   -0.18081E-02  4576   0.624E-01    0.819E-01
DAV:   9    -0.427797715075E+03   -0.65034E-02   -0.27780E-02  4576   0.807E-01    0.168E+00
DAV:  10    -0.427792008345E+03    0.57067E-02   -0.29181E-02  4672   0.819E-01    0.995E-01
DAV:  11    -0.427790399417E+03    0.16089E-02   -0.10203E-02  4704   0.518E-01    0.670E-01
DAV:  12    -0.427792443006E+03   -0.20436E-02   -0.10950E-02  4640   0.540E-01    0.101E+00
DAV:  13    -0.427790423512E+03    0.20195E-02   -0.10920E-02  4640   0.506E-01    0.613E-01
DAV:  14    -0.427789478255E+03    0.94526E-03   -0.32708E-03  4544   0.285E-01    0.239E-01
DAV:  15    -0.427789424280E+03    0.53976E-04   -0.63955E-04  6112   0.114E-01    0.158E-01
DAV:  16    -0.427789468165E+03   -0.43886E-04   -0.37204E-04  4704   0.103E-01    0.172E-01
DAV:  17    -0.427789395726E+03    0.72439E-04   -0.26849E-04  4544   0.914E-02    0.742E-02
DAV:  18    -0.427789390598E+03    0.51282E-05   -0.79377E-05  4544   0.467E-02    0.560E-02
DAV:  19    -0.427789404421E+03   -0.13823E-04   -0.68578E-05  5088   0.400E-02    0.723E-02
DAV:  20    -0.427789419871E+03   -0.15450E-04   -0.92388E-05  4416   0.447E-02    0.783E-02
DAV:  21    -0.427789410785E+03    0.90858E-05   -0.58052E-05  4448   0.373E-02    0.394E-02
DAV:  22    -0.427789414357E+03   -0.35718E-05   -0.17462E-05  3424   0.219E-02    0.409E-02
DAV:  23    -0.427789420900E+03   -0.65436E-05   -0.21539E-05  3616   0.231E-02    0.365E-02
DAV:  24    -0.427789419728E+03    0.11727E-05   -0.10883E-05  2848   0.179E-02    0.919E-03
DAV:  25    -0.427789421114E+03   -0.13862E-05   -0.17158E-06  2368   0.705E-03    0.914E-03
DAV:  26    -0.427789427018E+03   -0.59046E-05   -0.17738E-06  2656   0.680E-03    0.111E-02
DAV:  27    -0.427789428732E+03   -0.17133E-05   -0.12766E-06  2624   0.614E-03    0.504E-03
DAV:  28    -0.427789431028E+03   -0.22965E-05   -0.65716E-07  2400   0.414E-03    0.786E-03
DAV:  29    -0.427789436155E+03   -0.51264E-05   -0.84355E-07  2656   0.424E-03    0.623E-03
DAV:  30    -0.427789437374E+03   -0.12193E-05   -0.36086E-07  2624   0.318E-03    0.367E-03
DAV:  31    -0.427789439539E+03   -0.21656E-05   -0.24393E-07  2400   0.243E-03    0.432E-03
DAV:  32    -0.427789442505E+03   -0.29660E-05   -0.31327E-07  2528   0.247E-03    0.182E-03
DAV:  33    -0.427789443220E+03   -0.71418E-06   -0.10576E-07  2560   0.149E-03
  19 F= -.42778104E+03 E0= -.42764353E+03  d E =-.226354E+00
       N       E                     dE             d eps       ncg     rms          rms(c)
DAV:   1    -0.427958834193E+03   -0.16939E+00   -0.50379E+01  4096   0.100E+01    0.114E+00
DAV:   2    -0.428433431698E+03   -0.47460E+00   -0.17071E+00  5664   0.569E+00    0.128E+01
DAV:   3    -0.428291148495E+03    0.14228E+00   -0.25544E+00  4672   0.566E+00    0.115E+01
DAV:   4    -0.428031998264E+03    0.25915E+00   -0.81499E-01  4480   0.348E+00    0.257E+00
DAV:   5    -0.428037090670E+03   -0.50924E-02   -0.19488E-01  4736   0.201E+00    0.340E+00
DAV:   6    -0.428049102068E+03   -0.12011E-01   -0.22749E-01  4736   0.203E+00    0.379E+00
DAV:   7    -0.428020905673E+03    0.28196E-01   -0.16196E-01  4608   0.180E+00    0.215E+00
DAV:   8    -0.428017431029E+03    0.34746E-02   -0.73161E-02  4448   0.127E+00    0.183E+00
DAV:   9    -0.428038331430E+03   -0.20900E-01   -0.10695E-01  4512   0.158E+00    0.318E+00
DAV:  10    -0.428017547544E+03    0.20784E-01   -0.10833E-01  4704   0.158E+00    0.190E+00
DAV:  11    -0.428013940554E+03    0.36070E-02   -0.40953E-02  4672   0.102E+00    0.155E+00
DAV:  12    -0.428023270958E+03   -0.93304E-02   -0.50821E-02  4704   0.116E+00    0.224E+00
DAV:  13    -0.428012190683E+03    0.11080E-01   -0.47025E-02  4672   0.107E+00    0.124E+00
DAV:  14    -0.428008927379E+03    0.32633E-02   -0.11646E-02  4640   0.545E-01    0.638E-01
DAV:  15    -0.428008750277E+03    0.17710E-03   -0.35519E-03  6144   0.283E-01    0.532E-01
DAV:  16    -0.428008561361E+03    0.18892E-03   -0.28751E-03  4736   0.267E-01    0.386E-01
DAV:  17    -0.428008110332E+03    0.45103E-03   -0.13042E-03  4544   0.206E-01    0.138E-01
DAV:  18    -0.428008132236E+03   -0.21904E-04   -0.36788E-04  4768   0.998E-02    0.150E-01
DAV:  19    -0.428008191540E+03   -0.59304E-04   -0.44059E-04  4992   0.103E-01    0.186E-01
DAV:  20    -0.428008136773E+03    0.54767E-04   -0.36829E-04  4576   0.918E-02    0.111E-01
DAV:  21    -0.428008125494E+03    0.11279E-04   -0.15317E-04  4672   0.581E-02    0.831E-02
DAV:  22    -0.428008183904E+03   -0.58410E-04   -0.17045E-04  4512   0.677E-02    0.136E-01
DAV:  23    -0.428008160807E+03    0.23098E-04   -0.17309E-04  4384   0.673E-02    0.697E-02
DAV:  24    -0.428008156483E+03    0.43234E-05   -0.39061E-05  4192   0.328E-02    0.376E-02
DAV:  25    -0.428008170097E+03   -0.13614E-04   -0.22131E-05  4288   0.258E-02    0.456E-02
DAV:  26    -0.428008177247E+03   -0.71499E-05   -0.19638E-05  4064   0.241E-02    0.182E-02
DAV:  27    -0.428008179731E+03   -0.24841E-05   -0.42087E-06  2784   0.112E-02    0.101E-02
DAV:  28    -0.428008192025E+03   -0.12294E-04   -0.42275E-06  2752   0.104E-02    0.184E-02
DAV:  29    -0.428008199367E+03   -0.73424E-05   -0.37516E-06  2848   0.976E-03    0.784E-03
DAV:  30    -0.428008202496E+03   -0.31288E-05   -0.10204E-06  2560   0.533E-03    0.814E-03
DAV:  31    -0.428008216979E+03   -0.14483E-04   -0.15480E-06  2912   0.495E-03    0.835E-03
DAV:  32    -0.428008220017E+03   -0.30375E-05   -0.82173E-07  2720   0.471E-03    0.425E-03
DAV:  33    -0.428008224802E+03   -0.47850E-05   -0.62228E-07  2688   0.373E-03    0.654E-03
DAV:  34    -0.428008230790E+03   -0.59879E-05   -0.72135E-07  2720   0.380E-03    0.277E-03
DAV:  35    -0.428008232497E+03   -0.17071E-05   -0.23466E-07  2688   0.236E-03    0.334E-03
DAV:  36    -0.428008238602E+03   -0.61046E-05   -0.61374E-07  2688   0.294E-03    0.492E-03
DAV:  37    -0.428008240798E+03   -0.21960E-05   -0.33063E-07  2688   0.266E-03    0.257E-03
DAV:  38    -0.428008242396E+03   -0.15988E-05   -0.16310E-07  2464   0.175E-03    0.329E-03
DAV:  39    -0.428008244970E+03   -0.25739E-05   -0.23939E-07  2720   0.176E-03    0.143E-03
DAV:  40    -0.428008245282E+03   -0.31167E-06   -0.58130E-08  2592   0.988E-04
  20 F= -.42799785E+03 E0= -.42786046E+03  d E =-.443162E+00
       N       E                     dE             d eps       ncg     rms          rms(c)
DAV:   1    -0.427805974594E+03    0.20227E+00   -0.20369E+02  4096   0.203E+01    0.249E+00
DAV:   2    -0.431163724700E+03   -0.33578E+01   -0.10237E+01  6240   0.140E+01    0.340E+01
DAV:   3    -0.429141397833E+03    0.20223E+01   -0.14429E+01  4832   0.137E+01    0.214E+01
DAV:   4    -0.428196544305E+03    0.94485E+00   -0.33330E+00  4544   0.719E+00    0.715E+00
DAV:   5    -0.428175586132E+03    0.20958E-01   -0.10361E+00  4608   0.459E+00    0.733E+00
DAV:   6    -0.428237532419E+03   -0.61946E-01   -0.12494E+00  4672   0.460E+00    0.800E+00
DAV:   7    -0.428102529872E+03    0.13500E+00   -0.70470E-01  4704   0.394E+00    0.473E+00
DAV:   8    -0.428085452374E+03    0.17077E-01   -0.31142E-01  4480   0.256E+00    0.409E+00
DAV:   9    -0.428135284946E+03   -0.49833E-01   -0.39481E-01  4512   0.290E+00    0.552E+00
DAV:  10    -0.428071378774E+03    0.63906E-01   -0.34164E-01  4704   0.291E+00    0.337E+00
DAV:  11    -0.428075117238E+03   -0.37385E-02   -0.18468E-01  4608   0.212E+00    0.359E+00
DAV:  12    -0.428105811172E+03   -0.30694E-01   -0.24374E-01  4736   0.250E+00    0.456E+00
DAV:  13    -0.428054233453E+03    0.51578E-01   -0.17986E-01  4512   0.223E+00    0.226E+00
DAV:  14    -0.428047075260E+03    0.71582E-02   -0.44228E-02  4800   0.109E+00    0.167E+00
DAV:  15    -0.428050655903E+03   -0.35806E-02   -0.40491E-02  4992   0.101E+00    0.182E+00
DAV:  16    -0.428044135344E+03    0.65206E-02   -0.32345E-02  4480   0.901E-01    0.108E+00
DAV:  17    -0.428040889591E+03    0.32458E-02   -0.10916E-02  4608   0.552E-01    0.418E-01
DAV:  18    -0.428040764015E+03    0.12558E-03   -0.23758E-03  5984   0.219E-01    0.321E-01
DAV:  19    -0.428041210158E+03   -0.44614E-03   -0.30788E-03  4544   0.251E-01    0.504E-01
DAV:  20    -0.428040649171E+03    0.56099E-03   -0.20787E-03  4544   0.216E-01    0.201E-01
DAV:  21    -0.428040637552E+03    0.11619E-04   -0.52208E-04  4576   0.125E-01    0.176E-01
DAV:  22    -0.428040858316E+03   -0.22076E-03   -0.80050E-04  4544   0.157E-01    0.273E-01
DAV:  23    -0.428040676506E+03    0.18181E-03   -0.68254E-04  4608   0.146E-01    0.113E-01
DAV:  24    -0.428040679134E+03   -0.26279E-05   -0.15383E-04  4768   0.637E-02    0.896E-02
DAV:  25    -0.428040729856E+03   -0.50722E-04   -0.15588E-04  4512   0.620E-02    0.117E-01
DAV:  26    -0.428040710726E+03    0.19130E-04   -0.92828E-05  4544   0.506E-02    0.586E-02
DAV:  27    -0.428040723601E+03   -0.12874E-04   -0.38397E-05  4384   0.341E-02    0.670E-02
DAV:  28    -0.428040743207E+03   -0.19607E-04   -0.45107E-05  4192   0.323E-02    0.397E-02
DAV:  29    -0.428040746610E+03   -0.34030E-05   -0.16894E-05  4192   0.231E-02    0.200E-02
DAV:  30    -0.428040764071E+03   -0.17461E-04   -0.81666E-06  3456   0.165E-02    0.251E-02
DAV:  31    -0.428040785553E+03   -0.21482E-04   -0.70066E-06  3648   0.145E-02    0.101E-02
DAV:  32    -0.428040790140E+03   -0.45866E-05   -0.19114E-06  2752   0.741E-03    0.924E-03
DAV:  33    -0.428040816292E+03   -0.26153E-04   -0.32432E-06  3232   0.857E-03    0.140E-02
DAV:  34    -0.428040826530E+03   -0.10237E-04   -0.20694E-06  2848   0.846E-03    0.506E-03
DAV:  35    -0.428040835910E+03   -0.93805E-05   -0.11714E-06  2656   0.562E-03    0.927E-03
DAV:  36    -0.428040855455E+03   -0.19545E-04   -0.26266E-06  3328   0.586E-03    0.630E-03
DAV:  37    -0.428040858428E+03   -0.29733E-05   -0.68416E-07  2784   0.395E-03    0.499E-03
DAV:  38    -0.428040867386E+03   -0.89582E-05   -0.91323E-07  2784   0.363E-03    0.621E-03
DAV:  39    -0.428040870128E+03   -0.27421E-05   -0.50125E-07  2720   0.349E-03    0.250E-03
DAV:  40    -0.428040873551E+03   -0.34231E-05   -0.41031E-07  2496   0.292E-03    0.498E-03
DAV:  41    -0.428040877776E+03   -0.42241E-05   -0.59351E-07  2720   0.296E-03    0.295E-03
DAV:  42    -0.428040878321E+03   -0.54564E-06   -0.14832E-07  2688   0.164E-03
  21 F= -.42802663E+03 E0= -.42789033E+03  d E =-.471944E+00
       N       E                     dE             d eps       ncg     rms          rms(c)
DAV:   1    -0.428053497185E+03   -0.12619E-01   -0.36922E+01  4096   0.857E+00    0.117E+00
DAV:   2    -0.428613396972E+03   -0.55990E+00   -0.18056E+00  4736   0.677E+00    0.124E+01
DAV:   3    -0.428500951171E+03    0.11245E+00   -0.26704E+00  4640   0.706E+00    0.145E+01
DAV:   4    -0.428116452719E+03    0.38450E+00   -0.14174E+00  4768   0.407E+00    0.267E+00
DAV:   5    -0.428107285924E+03    0.91668E-02   -0.17921E-01  5216   0.193E+00    0.248E+00
DAV:   6    -0.428120896605E+03   -0.13611E-01   -0.14886E-01  4672   0.180E+00    0.323E+00
DAV:   7    -0.428098363160E+03    0.22533E-01   -0.10959E-01  4448   0.156E+00    0.168E+00
DAV:   8    -0.428096494955E+03    0.18682E-02   -0.48640E-02  4608   0.105E+00    0.158E+00
DAV:   9    -0.428107163149E+03   -0.10668E-01   -0.69654E-02  4448   0.118E+00    0.248E+00
DAV:  10    -0.428100608951E+03    0.65542E-02   -0.82119E-02  4736   0.123E+00    0.191E+00
DAV:  11    -0.428092297678E+03    0.83113E-02   -0.32737E-02  4544   0.920E-01    0.922E-01
DAV:  12    -0.428097553265E+03   -0.52556E-02   -0.26713E-02  4768   0.846E-01    0.158E+00
DAV:  13    -0.428095424036E+03    0.21292E-02   -0.30082E-02  4736   0.879E-01    0.131E+00
DAV:  14    -0.428091052860E+03    0.43712E-02   -0.16211E-02  4640   0.647E-01    0.607E-01
DAV:  15    -0.428090538927E+03    0.51393E-03   -0.43468E-03  5632   0.312E-01    0.368E-01
DAV:  16    -0.428090662306E+03   -0.12338E-03   -0.24350E-03  4736   0.265E-01    0.386E-01
DAV:  17    -0.428090238518E+03    0.42379E-03   -0.14845E-03  4512   0.217E-01    0.193E-01
DAV:  18    -0.428090195780E+03    0.42739E-04   -0.43275E-04  4576   0.112E-01    0.157E-01
DAV:  19    -0.428090213704E+03   -0.17924E-04   -0.26448E-04  5120   0.848E-02    0.154E-01
DAV:  20    -0.428090170236E+03    0.43468E-04   -0.17291E-04  4512   0.704E-02    0.841E-02
DAV:  21    -0.428090165040E+03    0.51962E-05   -0.78046E-05  4512   0.474E-02    0.682E-02
DAV:  22    -0.428090193794E+03   -0.28754E-04   -0.12468E-04  4512   0.586E-02    0.104E-01
DAV:  23    -0.428090168273E+03    0.25520E-04   -0.10838E-04  4544   0.531E-02    0.500E-02
DAV:  24    -0.428090167081E+03    0.11922E-05   -0.28895E-05  4192   0.247E-02    0.379E-02
DAV:  25    -0.428090170966E+03   -0.38843E-05   -0.21205E-05  3392   0.217E-02    0.413E-02
DAV:  26    -0.428090172573E+03   -0.16074E-05   -0.16204E-05  3168   0.203E-02    0.230E-02
DAV:  27    -0.428090172702E+03   -0.12860E-06   -0.48589E-06  2464   0.130E-02
  22 F= -.42807711E+03 E0= -.42794026E+03  d E =-.522427E+00
       N       E                     dE             d eps       ncg     rms          rms(c)
DAV:   1    -0.428157019976E+03   -0.66847E-01   -0.32054E+00  4096   0.244E+00    0.331E-01
DAV:   2    -0.428182681454E+03   -0.25661E-01   -0.96413E-02  6080   0.138E+00    0.268E+00
DAV:   3    -0.428164824550E+03    0.17857E-01   -0.69865E-02  4640   0.129E+00    0.139E+00
DAV:   4    -0.428163114272E+03    0.17103E-02   -0.28719E-02  4672   0.596E-01    0.106E+00
DAV:   5    -0.428163671129E+03   -0.55686E-03   -0.19479E-02  4640   0.608E-01    0.998E-01
DAV:   6    -0.428163935231E+03   -0.26410E-03   -0.15870E-02  4512   0.609E-01    0.998E-01
DAV:   7    -0.428161434103E+03    0.25011E-02   -0.10796E-02  4608   0.540E-01    0.494E-01
DAV:   8    -0.428161760746E+03   -0.32664E-03   -0.52672E-03  4480   0.381E-01    0.569E-01
DAV:   9    -0.428162759083E+03   -0.99834E-03   -0.71519E-03  4576   0.433E-01    0.822E-01
DAV:  10    -0.428160972921E+03    0.17862E-02   -0.61994E-03  4608   0.387E-01    0.284E-01
DAV:  11    -0.428160920439E+03    0.52482E-04   -0.15634E-03  4736   0.201E-01    0.245E-01
DAV:  12    -0.428161159407E+03   -0.23897E-03   -0.19348E-03  4896   0.188E-01    0.390E-01
DAV:  13    -0.428160845599E+03    0.31381E-03   -0.15472E-03  4608   0.168E-01    0.184E-01
DAV:  14    -0.428160776948E+03    0.68651E-04   -0.35265E-04  4544   0.899E-02    0.881E-02
DAV:  15    -0.428160783815E+03   -0.68673E-05   -0.17528E-04  4960   0.597E-02    0.927E-02
DAV:  16    -0.428160796403E+03   -0.12588E-04   -0.14849E-04  4352   0.618E-02    0.921E-02
DAV:  17    -0.428160773564E+03    0.22839E-04   -0.78217E-05  4608   0.519E-02    0.345E-02
DAV:  18    -0.428160774959E+03   -0.13958E-05   -0.20891E-05  4096   0.250E-02    0.285E-02
DAV:  19    -0.428160788843E+03   -0.13884E-04   -0.32037E-05  4288   0.283E-02    0.551E-02
DAV:  20    -0.428160792447E+03   -0.36041E-05   -0.37028E-05  4288   0.282E-02    0.391E-02
DAV:  21    -0.428160792096E+03    0.35108E-06   -0.16103E-05  2688   0.184E-02    0.205E-02
DAV:  22    -0.428160796671E+03   -0.45749E-05   -0.68470E-06  2592   0.135E-02    0.239E-02
DAV:  23    -0.428160803405E+03   -0.67343E-05   -0.69951E-06  2688   0.129E-02    0.162E-02
DAV:  24    -0.428160804698E+03   -0.12926E-05   -0.26255E-06  2592   0.813E-03    0.499E-03
DAV:  25    -0.428160808929E+03   -0.42308E-05   -0.12853E-06  2304   0.603E-03    0.101E-02
DAV:  26    -0.428160818328E+03   -0.93997E-05   -0.13866E-06  2656   0.598E-03    0.611E-03
DAV:  27    -0.428160820817E+03   -0.24888E-05   -0.58095E-07  2624   0.428E-03    0.326E-03
DAV:  28    -0.428160832563E+03   -0.11746E-04   -0.96598E-07  2592   0.491E-03    0.915E-03
DAV:  29    -0.428160839323E+03   -0.67596E-05   -0.85798E-07  2784   0.480E-03    0.700E-03
DAV:  30    -0.428160841952E+03   -0.26292E-05   -0.37156E-07  2528   0.296E-03    0.684E-03
DAV:  31    -0.428160849348E+03   -0.73960E-05   -0.65664E-07  2656   0.320E-03    0.405E-03
DAV:  32    -0.428160851325E+03   -0.19766E-05   -0.29507E-07  2624   0.253E-03    0.191E-03
DAV:  33    -0.428160853292E+03   -0.19670E-05   -0.13469E-07  2400   0.172E-03    0.282E-03
DAV:  34    -0.428160857171E+03   -0.38798E-05   -0.15928E-07  2528   0.168E-03    0.139E-03
DAV:  35    -0.428160858014E+03   -0.84226E-06   -0.65865E-08  2496   0.116E-03
  23 F= -.42814944E+03 E0= -.42801271E+03  d E =-.723289E-01
       N       E                     dE             d eps       ncg     rms          rms(c)
DAV:   1    -0.428245992239E+03   -0.85135E-01   -0.28990E+01  4096   0.732E+00    0.987E-01
DAV:   2    -0.428439281888E+03   -0.19329E+00   -0.81497E-01  6016   0.374E+00    0.722E+00
DAV:   3    -0.428317422637E+03    0.12186E+00   -0.51887E-01  4608   0.345E+00    0.402E+00
DAV:   4    -0.428306910641E+03    0.10512E-01   -0.26942E-01  4800   0.187E+00    0.347E+00
DAV:   5    -0.428312280515E+03   -0.53699E-02   -0.19623E-01  4768   0.191E+00    0.328E+00
DAV:   6    -0.428315945397E+03   -0.36649E-02   -0.17936E-01  4640   0.193E+00    0.344E+00
DAV:   7    -0.428289734738E+03    0.26211E-01   -0.13045E-01  4608   0.170E+00    0.188E+00
DAV:   8    -0.428287184360E+03    0.25504E-02   -0.60249E-02  4544   0.113E+00    0.154E+00
DAV:   9    -0.428307172244E+03   -0.19988E-01   -0.97565E-02  4768   0.143E+00    0.304E+00
DAV:  10    -0.428286701839E+03    0.20470E-01   -0.81861E-02  4704   0.139E+00    0.150E+00
DAV:  11    -0.428281179372E+03    0.55225E-02   -0.21216E-02  4544   0.723E-01    0.643E-01
DAV:  12    -0.428281686887E+03   -0.50752E-03   -0.91883E-03  4640   0.486E-01    0.720E-01
DAV:  13    -0.428281340720E+03    0.34617E-03   -0.82685E-03  4640   0.440E-01    0.644E-01
DAV:  14    -0.428280377232E+03    0.96349E-03   -0.47465E-03  4544   0.327E-01    0.338E-01
DAV:  15    -0.428280260991E+03    0.11624E-03   -0.13096E-03  4608   0.178E-01    0.256E-01
DAV:  16    -0.428280358824E+03   -0.97833E-04   -0.10760E-03  4704   0.172E-01    0.272E-01
DAV:  17    -0.428280160908E+03    0.19792E-03   -0.72526E-04  4576   0.147E-01    0.116E-01
DAV:  18    -0.428280144862E+03    0.16046E-04   -0.19781E-04  4832   0.743E-02    0.849E-02
DAV:  19    -0.428280220018E+03   -0.75156E-04   -0.21684E-04  4608   0.811E-02    0.149E-01
DAV:  20    -0.428280210370E+03    0.96473E-05   -0.19918E-04  4416   0.780E-02    0.114E-01
DAV:  21    -0.428280204811E+03    0.55593E-05   -0.78578E-05  4512   0.442E-02    0.911E-02
DAV:  22    -0.428280222735E+03   -0.17924E-04   -0.81276E-05  4448   0.404E-02    0.886E-02
DAV:  23    -0.428280234562E+03   -0.11827E-04   -0.98133E-05  4416   0.416E-02    0.543E-02
DAV:  24    -0.428280235103E+03   -0.54069E-06   -0.26821E-05  4224   0.248E-02    0.260E-02
DAV:  25    -0.428280251867E+03   -0.16764E-04   -0.98786E-06  3360   0.177E-02    0.310E-02
DAV:  26    -0.428280281118E+03   -0.29251E-04   -0.11247E-05  3264   0.173E-02    0.166E-02
DAV:  27    -0.428280289184E+03   -0.80665E-05   -0.36780E-06  2816   0.111E-02    0.147E-02
DAV:  28    -0.428280336557E+03   -0.47373E-04   -0.61184E-06  3232   0.125E-02    0.266E-02
DAV:  29    -0.428280352149E+03   -0.15591E-04   -0.47925E-06  2848   0.119E-02    0.156E-02
DAV:  30    -0.428280362587E+03   -0.10439E-04   -0.20706E-06  2528   0.762E-03    0.159E-02
DAV:  31    -0.428280401200E+03   -0.38613E-04   -0.40736E-06  3232   0.795E-03    0.103E-02
DAV:  32    -0.428280408158E+03   -0.69581E-05   -0.14134E-06  2912   0.638E-03    0.500E-03
DAV:  33    -0.428280418059E+03   -0.99003E-05   -0.86275E-07  2528   0.492E-03    0.804E-03
DAV:  34    -0.428280435528E+03   -0.17469E-04   -0.11563E-06  2912   0.485E-03    0.396E-03
DAV:  35    -0.428280438455E+03   -0.29268E-05   -0.31801E-07  2656   0.271E-03    0.393E-03
DAV:  36    -0.428280450054E+03   -0.11599E-04   -0.42593E-07  2624   0.285E-03    0.464E-03
DAV:  37    -0.428280454068E+03   -0.40142E-05   -0.27496E-07  2752   0.268E-03    0.212E-03
DAV:  38    -0.428280458358E+03   -0.42899E-05   -0.14546E-07  2528   0.183E-03    0.296E-03
DAV:  39    -0.428280464782E+03   -0.64245E-05   -0.19311E-07  2592   0.180E-03    0.124E-03
DAV:  40    -0.428280466293E+03   -0.15106E-05   -0.72110E-08  2624   0.115E-03    0.180E-03
DAV:  41    -0.428280470612E+03   -0.43194E-05   -0.11296E-07  2464   0.132E-03    0.168E-03
DAV:  42    -0.428280471817E+03   -0.12049E-05   -0.53552E-08  2528   0.108E-03    0.708E-04
DAV:  43    -0.428280473410E+03   -0.15933E-05   -0.42050E-08  2336   0.804E-04    0.130E-03
DAV:  44    -0.428280474487E+03   -0.10768E-05   -0.37000E-08  2432   0.825E-04    0.488E-04
DAV:  45    -0.428280474822E+03   -0.33458E-06   -0.12116E-08  2272   0.469E-04
  24 F= -.42827291E+03 E0= -.42813660E+03  d E =-.195803E+00
       N       E                     dE             d eps       ncg     rms          rms(c)
DAV:   1    -0.428282830935E+03   -0.23564E-02   -0.23671E+00  4096   0.207E+00    0.297E-01
DAV:   2    -0.428301146381E+03   -0.18315E-01   -0.71742E-02  5952   0.117E+00    0.227E+00
DAV:   3    -0.428287340055E+03    0.13806E-01   -0.46044E-02  4576   0.108E+00    0.877E-01
DAV:   4    -0.428288583906E+03   -0.12439E-02   -0.21481E-02  4704   0.521E-01    0.125E+00
DAV:   5    -0.428288360366E+03    0.22354E-03   -0.22315E-02  4640   0.593E-01    0.100E+00
DAV:   6    -0.428288284173E+03    0.76193E-04   -0.14802E-02  4544   0.574E-01    0.925E-01
DAV:   7    -0.428286078860E+03    0.22053E-02   -0.92253E-03  4736   0.502E-01    0.459E-01
DAV:   8    -0.428286293422E+03   -0.21456E-03   -0.43416E-03  4512   0.345E-01    0.502E-01
DAV:   9    -0.428287457391E+03   -0.11640E-02   -0.70077E-03  4512   0.405E-01    0.829E-01
DAV:  10    -0.428285860226E+03    0.15972E-02   -0.66546E-03  4480   0.367E-01    0.369E-01
DAV:  11    -0.428285628148E+03    0.23208E-03   -0.16700E-03  4480   0.184E-01    0.207E-01
DAV:  12    -0.428285700757E+03   -0.72609E-04   -0.10081E-03  4768   0.148E-01    0.239E-01
DAV:  13    -0.428285627034E+03    0.73723E-04   -0.73912E-04  4544   0.133E-01    0.175E-01
DAV:  14    -0.428285549370E+03    0.77664E-04   -0.34835E-04  4512   0.925E-02    0.814E-02
DAV:  15    -0.428285546758E+03    0.26112E-05   -0.11907E-04  4768   0.501E-02    0.665E-02
DAV:  16    -0.428285559809E+03   -0.13050E-04   -0.92283E-05  4448   0.515E-02    0.802E-02
DAV:  17    -0.428285541781E+03    0.18028E-04   -0.58059E-05  4544   0.450E-02    0.311E-02
DAV:  18    -0.428285542217E+03   -0.43635E-06   -0.15713E-05  3744   0.223E-02    0.238E-02
DAV:  19    -0.428285550310E+03   -0.80932E-05   -0.20459E-05  3968   0.244E-02    0.426E-02
DAV:  20    -0.428285550760E+03   -0.44996E-06   -0.20053E-05  3808   0.237E-02    0.268E-02
DAV:  21    -0.428285550561E+03    0.19898E-06   -0.85826E-06  2560   0.138E-02
  25 F= -.42827869E+03 E0= -.42814250E+03  d E =-.201575E+00
       N       E                     dE             d eps       ncg     rms          rms(c)
DAV:   1    -0.428285629922E+03   -0.79162E-04   -0.48527E-02  4096   0.296E-01    0.463E-02
DAV:   2    -0.428286340295E+03   -0.71037E-03   -0.23284E-03  5984   0.209E-01    0.504E-01
DAV:   3    -0.428286041828E+03    0.29847E-03   -0.31598E-03  4608   0.211E-01    0.426E-01
DAV:   4    -0.428285720586E+03    0.32124E-03   -0.14261E-03  4416   0.140E-01    0.112E-01
DAV:   5    -0.428285741551E+03   -0.20966E-04   -0.31558E-04  4928   0.825E-02    0.128E-01
DAV:   6    -0.428285769537E+03   -0.27986E-04   -0.34069E-04  4448   0.884E-02    0.152E-01
DAV:   7    -0.428285719132E+03    0.50405E-04   -0.26632E-04  4640   0.789E-02    0.844E-02
DAV:   8    -0.428285718491E+03    0.64175E-06   -0.11664E-04  4416   0.484E-02    0.725E-02
DAV:   9    -0.428285749013E+03   -0.30523E-04   -0.15802E-04  4512   0.578E-02    0.119E-01
DAV:  10    -0.428285726695E+03    0.22319E-04   -0.14491E-04  4512   0.566E-02    0.687E-02
DAV:  11    -0.428285717920E+03    0.87749E-05   -0.48601E-05  4352   0.371E-02    0.338E-02
DAV:  12    -0.428285719896E+03   -0.19756E-05   -0.21760E-05  3936   0.249E-02    0.341E-02
DAV:  13    -0.428285722995E+03   -0.30998E-05   -0.21154E-05  3616   0.240E-02    0.365E-02
DAV:  14    -0.428285720597E+03    0.23988E-05   -0.13381E-05  2784   0.202E-02    0.181E-02
DAV:  15    -0.428285720520E+03    0.76499E-07   -0.38073E-06  2304   0.939E-03
  26 F= -.42827890E+03 E0= -.42814270E+03  d E =-.201791E+00
       N       E                     dE             d eps       ncg     rms          rms(c)
DAV:   1    -0.428300140503E+03   -0.14420E-01   -0.32439E-01  4096   0.767E-01    0.139E-01
DAV:   2    -0.428322809885E+03   -0.22669E-01   -0.64080E-02  5664   0.971E-01    0.332E+00
DAV:   3    -0.428304108040E+03    0.18702E-01   -0.82331E-02  4576   0.973E-01    0.127E+00
DAV:   4    -0.428300585984E+03    0.35221E-02   -0.11679E-02  5056   0.440E-01    0.269E-01
DAV:   5    -0.428301305088E+03   -0.71910E-03   -0.37454E-03  4640   0.299E-01    0.564E-01
DAV:   6    -0.428301129438E+03    0.17565E-03   -0.50087E-03  4576   0.301E-01    0.503E-01
DAV:   7    -0.428300606509E+03    0.52293E-03   -0.26181E-03  4544   0.233E-01    0.230E-01
DAV:   8    -0.428300550848E+03    0.55662E-04   -0.85027E-04  4608   0.147E-01    0.168E-01
DAV:   9    -0.428300832920E+03   -0.28207E-03   -0.11340E-03  4800   0.168E-01    0.342E-01
DAV:  10    -0.428300535856E+03    0.29706E-03   -0.94040E-04  4576   0.158E-01    0.154E-01
DAV:  11    -0.428300515214E+03    0.20643E-04   -0.28541E-04  4416   0.867E-02    0.893E-02
DAV:  12    -0.428300593179E+03   -0.77965E-04   -0.29372E-04  4608   0.931E-02    0.168E-01
DAV:  13    -0.428300513633E+03    0.79545E-04   -0.27605E-04  4608   0.862E-02    0.761E-02
DAV:  14    -0.428300507782E+03    0.58516E-05   -0.72221E-05  4512   0.381E-02    0.363E-02
DAV:  15    -0.428300508220E+03   -0.43848E-06   -0.22019E-05  3872   0.226E-02    0.261E-02
DAV:  16    -0.428300509796E+03   -0.15762E-05   -0.14255E-05  3104   0.199E-02    0.303E-02
DAV:  17    -0.428300507150E+03    0.26467E-05   -0.76543E-06  2368   0.160E-02    0.129E-02
[...]
DAV:  17    -0.428810072068E+03    0.11060E-04   -0.29060E-05  4352   0.295E-02    0.298E-02
DAV:  18    -0.428810073744E+03   -0.16763E-05   -0.55602E-06  2432   0.120E-02    0.265E-02
DAV:  19    -0.428810074146E+03   -0.40185E-06   -0.87849E-06  2368   0.135E-02
  68 F= -.42880454E+03 E0= -.42866241E+03  d E =-.124548E-02
       N       E                     dE             d eps       ncg     rms          rms(c)
DAV:   1    -0.428810060764E+03    0.12980E-04   -0.17243E-01  4096   0.587E-01    0.106E-01
DAV:   2    -0.428834777746E+03   -0.24717E-01   -0.65927E-02  4768   0.982E-01    0.344E+00
DAV:   3    -0.428813522554E+03    0.21255E-01   -0.83400E-02  4512   0.987E-01    0.118E+00
DAV:   4    -0.428810169530E+03    0.33530E-02   -0.88408E-03  5376   0.405E-01    0.214E-01
DAV:   5    -0.428810480322E+03   -0.31079E-03   -0.20291E-03  5504   0.228E-01    0.350E-01
DAV:   6    -0.428810545131E+03   -0.64808E-04   -0.22718E-03  4352   0.222E-01    0.409E-01
DAV:   7    -0.428810231260E+03    0.31387E-03   -0.15937E-03  4416   0.169E-01    0.188E-01
DAV:   8    -0.428810163679E+03    0.67581E-04   -0.31907E-04  4512   0.909E-02    0.872E-02
DAV:   9    -0.428810196870E+03   -0.33191E-04   -0.18262E-04  4992   0.687E-02    0.118E-01
DAV:  10    -0.428810198692E+03   -0.18214E-05   -0.25436E-04  4544   0.726E-02    0.120E-01
DAV:  11    -0.428810169127E+03    0.29564E-04   -0.14471E-04  4480   0.593E-02    0.717E-02
DAV:  12    -0.428810179691E+03   -0.10563E-04   -0.71035E-05  4832   0.432E-02    0.803E-02
DAV:  13    -0.428810186642E+03   -0.69518E-05   -0.10838E-04  4416   0.479E-02    0.868E-02
DAV:  14    -0.428810166662E+03    0.19980E-04   -0.74989E-05  4448   0.412E-02    0.341E-02
DAV:  15    -0.428810166761E+03   -0.98982E-07   -0.16948E-05  3392   0.209E-02    0.203E-02
DAV:  16    -0.428810169802E+03   -0.30406E-05   -0.11334E-05  2656   0.180E-02    0.306E-02
DAV:  17    -0.428810167342E+03    0.24604E-05   -0.89502E-06  2432   0.154E-02    0.177E-02
DAV:  18    -0.428810167408E+03   -0.66648E-07   -0.21982E-06  2240   0.756E-03
  69 F= -.42880464E+03 E0= -.42866255E+03  d E =-.134578E-02
       N       E                     dE             d eps       ncg     rms          rms(c)
DAV:   1    -0.428810521210E+03   -0.35387E-03   -0.45176E-02  4096   0.300E-01    0.460E-02
DAV:   2    -0.428814120977E+03   -0.35998E-02   -0.97972E-03  5120   0.386E-01    0.132E+00
DAV:   3    -0.428811095556E+03    0.30254E-02   -0.12708E-02  4480   0.389E-01    0.501E-01
DAV:   4    -0.428810553832E+03    0.54172E-03   -0.16245E-03  4704   0.172E-01    0.102E-01
DAV:   5    -0.428810591450E+03   -0.37618E-04   -0.32165E-04  5408   0.946E-02    0.121E-01
DAV:   6    -0.428810637166E+03   -0.45717E-04   -0.40297E-04  4480   0.915E-02    0.186E-01
DAV:   7    -0.428810565803E+03    0.71363E-04   -0.33112E-04  4480   0.784E-02    0.840E-02
DAV:   8    -0.428810557618E+03    0.81849E-05   -0.78042E-05  4352   0.423E-02    0.494E-02
DAV:   9    -0.428810563885E+03   -0.62671E-05   -0.55624E-05  4416   0.384E-02    0.598E-02
DAV:  10    -0.428810563974E+03   -0.88621E-07   -0.61043E-05  4448   0.381E-02    0.619E-02
DAV:  11    -0.428810558855E+03    0.51189E-05   -0.38887E-05  4384   0.314E-02    0.461E-02
DAV:  12    -0.428810560743E+03   -0.18884E-05   -0.23861E-05  3968   0.249E-02    0.475E-02
DAV:  13    -0.428810561978E+03   -0.12346E-05   -0.30032E-05  4256   0.264E-02    0.473E-02
DAV:  14    -0.428810555887E+03    0.60911E-05   -0.19801E-05  3008   0.221E-02    0.201E-02
DAV:  15    -0.428810556504E+03   -0.61763E-06   -0.53173E-06  2400   0.110E-02
  70 F= -.42880501E+03 E0= -.42866296E+03  d E =-.368286E-03
       N       E                     dE             d eps       ncg     rms          rms(c)
DAV:   1    -0.428810875547E+03   -0.31966E-03   -0.40662E-01  4096   0.901E-01    0.150E-01
DAV:   2    -0.428860504893E+03   -0.49629E-01   -0.13935E-01  4896   0.138E+00    0.495E+00
DAV:   3    -0.428816608541E+03    0.43896E-01   -0.16676E-01  4576   0.137E+00    0.143E+00
DAV:   4    -0.428811373613E+03    0.52349E-02   -0.14405E-02  5344   0.536E-01    0.340E-01
DAV:   5    -0.428811748773E+03   -0.37516E-03   -0.37940E-03  5024   0.332E-01    0.446E-01
DAV:   6    -0.428812054392E+03   -0.30562E-03   -0.44092E-03  4480   0.314E-01    0.584E-01
DAV:   7    -0.428811344568E+03    0.70982E-03   -0.33777E-03  4512   0.255E-01    0.277E-01
DAV:   8    -0.428811218434E+03    0.12613E-03   -0.82973E-04  4416   0.135E-01    0.157E-01
DAV:   9    -0.428811255652E+03   -0.37217E-04   -0.52823E-04  4544   0.116E-01    0.176E-01
DAV:  10    -0.428811252305E+03    0.33470E-05   -0.53476E-04  4480   0.113E-01    0.180E-01
DAV:  11    -0.428811201138E+03    0.51167E-04   -0.30213E-04  4480   0.923E-02    0.132E-01
DAV:  12    -0.428811223062E+03   -0.21923E-04   -0.20789E-04  4576   0.752E-02    0.148E-01
DAV:  13    -0.428811216770E+03    0.62919E-05   -0.24372E-04  4576   0.786E-02    0.127E-01
DAV:  14    -0.428811172653E+03    0.44117E-04   -0.14884E-04  4512   0.629E-02    0.521E-02
DAV:  15    -0.428811174731E+03   -0.20788E-05   -0.53792E-05  4512   0.320E-02    0.409E-02
DAV:  16    -0.428811179060E+03   -0.43282E-05   -0.39208E-05  4256   0.301E-02    0.508E-02
DAV:  17    -0.428811171250E+03    0.78095E-05   -0.21660E-05  3744   0.254E-02    0.241E-02
DAV:  18    -0.428811172377E+03   -0.11267E-05   -0.31382E-06  2304   0.889E-03    0.198E-02
DAV:  19    -0.428811172624E+03   -0.24754E-06   -0.28621E-06  2208   0.811E-03
  71 F= -.42880557E+03 E0= -.42866362E+03  d E =-.936560E-03
       N       E                     dE             d eps       ncg     rms          rms(c)
DAV:   1    -0.428811182418E+03   -0.10041E-04   -0.23075E-02  4096   0.215E-01    0.382E-02
DAV:   2    -0.428814457136E+03   -0.32747E-02   -0.89380E-03  4960   0.353E-01    0.128E+00
DAV:   3    -0.428811523096E+03    0.29340E-02   -0.10913E-02  4480   0.354E-01    0.376E-01
DAV:   4    -0.428811195049E+03    0.32805E-03   -0.96361E-04  4928   0.139E-01    0.882E-02
DAV:   5    -0.428811233875E+03   -0.38826E-04   -0.24457E-04  5152   0.853E-02    0.113E-01
DAV:   6    -0.428811248794E+03   -0.14919E-04   -0.26777E-04  4480   0.798E-02    0.140E-01
DAV:   7    -0.428811204128E+03    0.44665E-04   -0.19524E-04  4512   0.638E-02    0.633E-02
DAV:   8    -0.428811200567E+03    0.35609E-05   -0.47714E-05  4320   0.312E-02    0.375E-02
DAV:   9    -0.428811203109E+03   -0.25411E-05   -0.29518E-05  4096   0.269E-02    0.413E-02
DAV:  10    -0.428811205347E+03   -0.22389E-05   -0.33543E-05  4320   0.276E-02    0.485E-02
DAV:  11    -0.428811201132E+03    0.42154E-05   -0.23505E-05  3712   0.240E-02    0.310E-02
DAV:  12    -0.428811202305E+03   -0.11731E-05   -0.11352E-05  2560   0.175E-02    0.320E-02
DAV:  13    -0.428811203935E+03   -0.16297E-05   -0.16165E-05  2592   0.195E-02    0.360E-02
DAV:  14    -0.428811200296E+03    0.36391E-05   -0.11845E-05  2432   0.172E-02    0.144E-02
DAV:  15    -0.428811200755E+03   -0.45881E-06   -0.31784E-06  2304   0.846E-03
  72 F= -.42880557E+03 E0= -.42866364E+03  d E =-.931609E-03
       N       E                     dE             d eps       ncg     rms          rms(c)
DAV:   1    -0.428811147419E+03    0.52876E-04   -0.74456E-02  4096   0.378E-01    0.754E-02
DAV:   2    -0.428820793783E+03   -0.96464E-02   -0.27581E-02  6624   0.595E-01    0.221E+00
DAV:   3    -0.428812046915E+03    0.87469E-02   -0.30561E-02  4640   0.586E-01    0.548E-01
DAV:   4    -0.428811293942E+03    0.75297E-03   -0.24816E-03  4992   0.225E-01    0.183E-01
DAV:   5    -0.428811476193E+03   -0.18225E-03   -0.10829E-03  4864   0.172E-01    0.278E-01
DAV:   6    -0.428811485957E+03   -0.97635E-05   -0.15656E-03  4512   0.173E-01    0.317E-01
DAV:   7    -0.428811285055E+03    0.20090E-03   -0.10026E-03  4608   0.139E-01    0.139E-01
DAV:   8    -0.428811271726E+03    0.13329E-04   -0.29885E-04  4512   0.895E-02    0.110E-01
DAV:   9    -0.428811320290E+03   -0.48564E-04   -0.33442E-04  4544   0.938E-02    0.160E-01
DAV:  10    -0.428811260854E+03    0.59435E-04   -0.27387E-04  4576   0.861E-02    0.946E-02
DAV:  11    -0.428811243247E+03    0.17608E-04   -0.10128E-04  4512   0.534E-02    0.491E-02
DAV:  12    -0.428811249905E+03   -0.66579E-05   -0.67425E-05  5344   0.425E-02    0.618E-02
DAV:  13    -0.428811249121E+03    0.78428E-06   -0.62663E-05  4416   0.398E-02    0.602E-02
DAV:  14    -0.428811239161E+03    0.99596E-05   -0.35060E-05  4288   0.289E-02    0.244E-02
DAV:  15    -0.428811239301E+03   -0.14051E-06   -0.94907E-06  2432   0.140E-02
  73 F= -.42880569E+03 E0= -.42866379E+03  d E =-.117941E-03
       N       E                     dE             d eps       ncg     rms          rms(c)
DAV:   1    -0.428811297771E+03   -0.58610E-04   -0.71132E-03  4160   0.118E-01    0.313E-02
DAV:   2    -0.428812582108E+03   -0.12843E-02   -0.34338E-03  5440   0.237E-01    0.779E-01
DAV:   3    -0.428811561733E+03    0.10204E-02   -0.47880E-03  4480   0.237E-01    0.341E-01
DAV:   4    -0.428811314104E+03    0.24763E-03   -0.78633E-04  4512   0.122E-01    0.830E-02
DAV:   5    -0.428811323210E+03   -0.91056E-05   -0.14949E-04  5888   0.609E-02    0.838E-02
DAV:   6    -0.428811335339E+03   -0.12129E-04   -0.15211E-04  4640   0.619E-02    0.103E-01
DAV:   7    -0.428811320133E+03    0.15205E-04   -0.15681E-04  4608   0.554E-02    0.819E-02
DAV:   8    -0.428811307163E+03    0.12971E-04   -0.63010E-05  4480   0.364E-02    0.339E-02
DAV:   9    -0.428811308201E+03   -0.10381E-05   -0.22106E-05  4032   0.244E-02    0.316E-02
DAV:  10    -0.428811314010E+03   -0.58088E-05   -0.30660E-05  4096   0.273E-02    0.530E-02
DAV:  11    -0.428811306783E+03    0.72265E-05   -0.23208E-05  4064   0.253E-02    0.240E-02
DAV:  12    -0.428811307048E+03   -0.26467E-06   -0.70633E-06  2432   0.139E-02
  74 F= -.42880575E+03 E0= -.42866384E+03  d E =-.180888E-03
       N       E                     dE             d eps       ncg     rms          rms(c)
DAV:   1    -0.428811276086E+03    0.30697E-04   -0.30885E-02  4096   0.205E-01    0.573E-02
DAV:   2    -0.428811849379E+03   -0.57329E-03   -0.22067E-03  5952   0.187E-01    0.448E-01
DAV:   3    -0.428811711072E+03    0.13831E-03   -0.30728E-03  4544   0.204E-01    0.454E-01
DAV:   4    -0.428811389949E+03    0.32112E-03   -0.17530E-03  4512   0.157E-01    0.165E-01
DAV:   5    -0.428811437009E+03   -0.47061E-04   -0.64160E-04  4640   0.115E-01    0.200E-01
DAV:   6    -0.428811494327E+03   -0.57318E-04   -0.87452E-04  4672   0.129E-01    0.253E-01
DAV:   7    -0.428811355672E+03    0.13866E-03   -0.68463E-04  4608   0.113E-01    0.125E-01
DAV:   8    -0.428811339147E+03    0.16525E-04   -0.21589E-04  4544   0.698E-02    0.841E-02
DAV:   9    -0.428811369387E+03   -0.30240E-04   -0.21452E-04  4704   0.692E-02    0.124E-01
DAV:  10    -0.428811333826E+03    0.35561E-04   -0.16956E-04  4608   0.633E-02    0.704E-02
DAV:  11    -0.428811323182E+03    0.10643E-04   -0.48485E-05  4512   0.385E-02    0.331E-02
DAV:  12    -0.428811325528E+03   -0.23460E-05   -0.20893E-05  3776   0.242E-02    0.312E-02
DAV:  13    -0.428811326654E+03   -0.11255E-05   -0.18300E-05  3648   0.230E-02    0.360E-02
DAV:  14    -0.428811322976E+03    0.36779E-05   -0.11263E-05  2720   0.185E-02    0.175E-02
DAV:  15    -0.428811323452E+03   -0.47633E-06   -0.40105E-06  2304   0.988E-03
  75 F= -.42880569E+03 E0= -.42866377E+03  d E =0.611645E-04
       N       E                     dE             d eps       ncg     rms          rms(c)
DAV:   1    -0.428811359077E+03   -0.36101E-04   -0.12954E-02  4096   0.133E-01    0.377E-02
DAV:   2    -0.428811675869E+03   -0.31679E-03   -0.10293E-03  5856   0.136E-01    0.337E-01
DAV:   3    -0.428811579375E+03    0.96494E-04   -0.16140E-03  4640   0.152E-01    0.327E-01
DAV:   4    -0.428811401620E+03    0.17775E-03   -0.74039E-04  4608   0.101E-01    0.877E-02
DAV:   5    -0.428811429902E+03   -0.28281E-04   -0.23493E-04  4704   0.767E-02    0.128E-01
DAV:   6    -0.428811442536E+03   -0.12635E-04   -0.32387E-04  4800   0.824E-02    0.146E-01
DAV:   7    -0.428811406367E+03    0.36170E-04   -0.26309E-04  4544   0.724E-02    0.102E-01
DAV:   8    -0.428811388884E+03    0.17483E-04   -0.10721E-04  4544   0.476E-02    0.530E-02
DAV:   9    -0.428811402403E+03   -0.13519E-04   -0.75622E-05  4512   0.435E-02    0.787E-02
DAV:  10    -0.428811394745E+03    0.76580E-05   -0.86794E-05  4576   0.434E-02    0.631E-02
DAV:  11    -0.428811384261E+03    0.10484E-04   -0.35208E-05  4384   0.315E-02    0.269E-02
DAV:  12    -0.428811385742E+03   -0.14814E-05   -0.91903E-06  2496   0.159E-02    0.229E-02
DAV:  13    -0.428811386942E+03   -0.11995E-05   -0.88044E-06  2592   0.157E-02    0.263E-02
DAV:  14    -0.428811385190E+03    0.17521E-05   -0.58691E-06  2432   0.132E-02    0.116E-02
DAV:  15    -0.428811385367E+03   -0.17734E-06   -0.15939E-06  2304   0.639E-03
  76 F= -.42880578E+03 E0= -.42866387E+03  d E =-.267986E-04
       N       E                     dE             d eps       ncg     rms          rms(c)
DAV:   1    -0.428811460602E+03   -0.75412E-04   -0.57102E-03  4096   0.107E-01    0.163E-02
DAV:   2    -0.428811654213E+03   -0.19361E-03   -0.58256E-04  6240   0.100E-01    0.292E-01
DAV:   3    -0.428811525442E+03    0.12877E-03   -0.85167E-04  4416   0.103E-01    0.179E-01
DAV:   4    -0.428811466663E+03    0.58778E-04   -0.22537E-04  4608   0.597E-02    0.463E-02
DAV:   5    -0.428811468186E+03   -0.15224E-05   -0.47237E-05  4448   0.311E-02    0.421E-02
DAV:   6    -0.428811475634E+03   -0.74487E-05   -0.54643E-05  4480   0.321E-02    0.667E-02
DAV:   7    -0.428811466501E+03    0.91328E-05   -0.45683E-05  4480   0.294E-02    0.304E-02
DAV:   8    -0.428811465649E+03    0.85287E-06   -0.11944E-05  2848   0.187E-02    0.165E-02
DAV:   9    -0.428811468264E+03   -0.26153E-05   -0.12389E-05  2528   0.171E-02    0.316E-02
DAV:  10    -0.428811467368E+03    0.89612E-06   -0.13901E-05  2432   0.179E-02    0.254E-02
DAV:  11    -0.428811465982E+03    0.13862E-05   -0.64882E-06  2272   0.137E-02    0.119E-02
DAV:  12    -0.428811466562E+03   -0.58075E-06   -0.32881E-06  2208   0.953E-03
  77 F= -.42880586E+03 E0= -.42866395E+03  d E =-.881278E-04
       N       E                     dE             d eps       ncg     rms          rms(c)
DAV:   1    -0.428811557170E+03   -0.91188E-04   -0.51389E-02  4096   0.322E-01    0.483E-02
DAV:   2    -0.428814418425E+03   -0.28613E-02   -0.81062E-03  5920   0.347E-01    0.117E+00
DAV:   3    -0.428812035003E+03    0.23834E-02   -0.10295E-02  4416   0.352E-01    0.440E-01
DAV:   4    -0.428811628314E+03    0.40669E-03   -0.14682E-03  4864   0.163E-01    0.132E-01
DAV:   5    -0.428811651992E+03   -0.23678E-04   -0.47528E-04  4640   0.997E-02    0.149E-01
DAV:   6    -0.428811718646E+03   -0.66653E-04   -0.55801E-04  4480   0.104E-01    0.218E-01
DAV:   7    -0.428811608621E+03    0.11002E-03   -0.39983E-04  4608   0.924E-02    0.757E-02
DAV:   8    -0.428811607849E+03    0.77243E-06   -0.92626E-05  4512   0.513E-02    0.564E-02
DAV:   9    -0.428811627483E+03   -0.19634E-04   -0.10091E-04  4608   0.535E-02    0.907E-02
DAV:  10    -0.428811619280E+03    0.82022E-05   -0.11077E-04  4480   0.542E-02    0.776E-02
DAV:  11    -0.428811604253E+03    0.15027E-04   -0.56459E-05  4512   0.394E-02    0.275E-02
DAV:  12    -0.428811613272E+03   -0.90187E-05   -0.38784E-05  4416   0.315E-02    0.518E-02
DAV:  13    -0.428811610528E+03    0.27439E-05   -0.43221E-05  4160   0.313E-02    0.440E-02
DAV:  14    -0.428811605365E+03    0.51628E-05   -0.20245E-05  3168   0.226E-02    0.167E-02
DAV:  15    -0.428811605983E+03   -0.61767E-06   -0.38655E-06  2336   0.928E-03
  78 F= -.42880603E+03 E0= -.42866412E+03  d E =-.249752E-03
       N       E                     dE             d eps       ncg     rms          rms(c)
DAV:   1    -0.428811612685E+03   -0.73198E-05   -0.75633E-03  4096   0.124E-01    0.216E-02
DAV:   2    -0.428812251950E+03   -0.63926E-03   -0.18170E-03  5408   0.165E-01    0.556E-01
DAV:   3    -0.428811719911E+03    0.53204E-03   -0.23423E-03  4480   0.166E-01    0.215E-01
DAV:   4    -0.428811621627E+03    0.98284E-04   -0.35849E-04  4736   0.793E-02    0.642E-02
DAV:   5    -0.428811625936E+03   -0.43092E-05   -0.10060E-04  4864   0.446E-02    0.634E-02
DAV:   6    -0.428811637770E+03   -0.11834E-04   -0.10984E-04  4480   0.458E-02    0.897E-02
DAV:   7    -0.428811622452E+03    0.15317E-04   -0.91387E-05  4608   0.412E-02    0.481E-02
DAV:   8    -0.428811618040E+03    0.44124E-05   -0.22895E-05  4256   0.256E-02    0.172E-02
DAV:   9    -0.428811622059E+03   -0.40191E-05   -0.13518E-05  2816   0.196E-02    0.332E-02
DAV:  10    -0.428811621259E+03    0.79963E-06   -0.15643E-05  2624   0.202E-02    0.298E-02
DAV:  11    -0.428811619345E+03    0.19146E-05   -0.92143E-06  2432   0.158E-02    0.151E-02
DAV:  12    -0.428811620017E+03   -0.67207E-06   -0.52440E-06  2272   0.117E-02
  79 F= -.42880605E+03 E0= -.42866414E+03  d E =-.276359E-03
       N       E                     dE             d eps       ncg     rms          rms(c)
DAV:   1    -0.428811609161E+03    0.10183E-04   -0.19121E-02  4096   0.189E-01    0.451E-02
DAV:   2    -0.428813440090E+03   -0.18309E-02   -0.50476E-03  5856   0.291E-01    0.899E-01
DAV:   3    -0.428812179726E+03    0.12604E-02   -0.75448E-03  4576   0.305E-01    0.525E-01
DAV:   4    -0.428811644734E+03    0.53499E-03   -0.16253E-03  4608   0.159E-01    0.891E-02
DAV:   5    -0.428811673959E+03   -0.29225E-04   -0.31747E-04  4992   0.845E-02    0.136E-01
DAV:   6    -0.428811702336E+03   -0.28377E-04   -0.40801E-04  4544   0.891E-02    0.175E-01
DAV:   7    -0.428811647121E+03    0.55215E-04   -0.33297E-04  4576   0.783E-02    0.988E-02
DAV:   8    -0.428811637478E+03    0.96424E-05   -0.10727E-04  4480   0.510E-02    0.639E-02
DAV:   9    -0.428811640776E+03   -0.32979E-05   -0.63266E-05  5024   0.411E-02    0.600E-02
DAV:  10    -0.428811644137E+03   -0.33606E-05   -0.70684E-05  4608   0.419E-02    0.724E-02
DAV:  11    -0.428811631665E+03    0.12472E-04   -0.45304E-05  4384   0.341E-02    0.364E-02
DAV:  12    -0.428811633783E+03   -0.21184E-05   -0.13741E-05  3264   0.202E-02    0.369E-02
DAV:  13    -0.428811634787E+03   -0.10040E-05   -0.15834E-05  3008   0.206E-02    0.365E-02
DAV:  14    -0.428811630983E+03    0.38042E-05   -0.11225E-05  2496   0.177E-02    0.149E-02
DAV:  15    -0.428811631662E+03   -0.67911E-06   -0.37086E-06  2272   0.866E-03
  80 F= -.42880602E+03 E0= -.42866414E+03  d E =0.289875E-04
       N       E                     dE             d eps       ncg     rms          rms(c)
DAV:   1    -0.428811628041E+03    0.29414E-05   -0.98475E-03  4096   0.136E-01    0.291E-02
DAV:   2    -0.428812265719E+03   -0.63768E-03   -0.18596E-03  6208   0.174E-01    0.534E-01
DAV:   3    -0.428811809674E+03    0.45605E-03   -0.26733E-03  4608   0.180E-01    0.300E-01
DAV:   4    -0.428811642816E+03    0.16686E-03   -0.58048E-04  4576   0.968E-02    0.679E-02
DAV:   5    -0.428811651709E+03   -0.88924E-05   -0.12384E-04  4512   0.560E-02    0.751E-02
DAV:   6    -0.428811675416E+03   -0.23707E-04   -0.16865E-04  4512   0.573E-02    0.125E-01
DAV:   7    -0.428811645164E+03    0.30252E-04   -0.15390E-04  4448   0.522E-02    0.625E-02
DAV:   8    -0.428811642955E+03    0.22095E-05   -0.43990E-05  4224   0.320E-02    0.442E-02
DAV:   9    -0.428811647977E+03   -0.50227E-05   -0.36227E-05  4384   0.313E-02    0.548E-02
DAV:  10    -0.428811644659E+03    0.33188E-05   -0.41502E-05  4288   0.312E-02    0.466E-02
DAV:  11    -0.428811639649E+03    0.50100E-05   -0.18367E-05  2752   0.226E-02    0.224E-02
DAV:  12    -0.428811641379E+03   -0.17301E-05   -0.68967E-06  2432   0.141E-02    0.270E-02
DAV:  13    -0.428811641643E+03   -0.26460E-06   -0.92535E-06  2560   0.144E-02
  81 F= -.42880606E+03 E0= -.42866415E+03  d E =-.425735E-05
