       N       E                     dE             d eps       ncg     rms          rms(c)
DAV:   1     0.586007056693E+04    0.58601E+04   -0.30939E+05  3840   0.160E+03
DAV:   2     0.799394705177E+02   -0.57801E+04   -0.55408E+04  3840   0.382E+02
DAV:   3    -0.469863110204E+03   -0.54980E+03   -0.48998E+03  4064   0.163E+02
DAV:   4    -0.492856784711E+03   -0.22994E+02   -0.22119E+02  4000   0.348E+01
DAV:   5    -0.493411748854E+03   -0.55496E+00   -0.55343E+00  4336   0.434E+00    0.845E+01
DAV:   6    -0.534275545901E+03   -0.40864E+02   -0.85730E+02  4336   0.156E+02    0.123E+02
DAV:   7    -0.560904155579E+03   -0.26629E+02   -0.53203E+02  4432   0.185E+02    0.130E+02
DAV:   8    -0.867185262157E+03   -0.30628E+03   -0.30624E+02  5088   0.176E+02    0.226E+02
DAV:   9    -0.481162024173E+03    0.38602E+03   -0.18385E+02  5664   0.693E+01    0.100E+02
DAV:  10    -0.440890025971E+03    0.40272E+02   -0.13909E+02  5344   0.745E+01    0.696E+01
DAV:  11    -0.481221251132E+03   -0.40331E+02   -0.15038E+02  4320   0.113E+02    0.109E+02
DAV:  12    -0.461008452734E+03    0.20213E+02   -0.99241E+01  4656   0.775E+01    0.952E+01
DAV:  13    -0.446836399028E+03    0.14172E+02   -0.55671E+01  4656   0.535E+01    0.869E+01
DAV:  14    -0.435910485027E+03    0.10926E+02   -0.39580E+01  4560   0.447E+01    0.730E+01
DAV:  15    -0.434557616042E+03    0.13529E+01   -0.40475E+01  4416   0.416E+01    0.680E+01
DAV:  16    -0.430089022269E+03    0.44686E+01   -0.30579E+01  4464   0.457E+01    0.643E+01
DAV:  17    -0.423379679197E+03    0.67093E+01   -0.25042E+01  5168   0.327E+01    0.529E+01
DAV:  18    -0.422110355342E+03    0.12693E+01   -0.17488E+01  4192   0.271E+01    0.503E+01
DAV:  19    -0.417769316703E+03    0.43410E+01   -0.13833E+01  4352   0.241E+01    0.313E+01
DAV:  20    -0.417706497099E+03    0.62820E-01   -0.86611E+00  4272   0.211E+01    0.304E+01
DAV:  21    -0.416436423783E+03    0.12701E+01   -0.64112E+00  4256   0.191E+01    0.236E+01
DAV:  22    -0.415555012921E+03    0.88141E+00   -0.40190E+00  4176   0.157E+01    0.193E+01
DAV:  23    -0.415042715379E+03    0.51230E+00   -0.27380E+00  4384   0.114E+01    0.161E+01
DAV:  24    -0.415058091116E+03   -0.15376E-01   -0.18262E+00  4272   0.885E+00    0.192E+01
DAV:  25    -0.414657740872E+03    0.40035E+00   -0.92992E-01  4064   0.618E+00    0.130E+01
DAV:  26    -0.414598419781E+03    0.59321E-01   -0.97387E-01  4304   0.679E+00    0.124E+01
DAV:  27    -0.414852900725E+03   -0.25448E+00   -0.15949E+00  4528   0.794E+00    0.174E+01
DAV:  28    -0.415508806748E+03   -0.65591E+00   -0.11560E+00  4704   0.692E+00    0.265E+01
DAV:  29    -0.415138658481E+03    0.37015E+00   -0.10241E+00  4752   0.563E+00    0.216E+01
DAV:  30    -0.414482657145E+03    0.65600E+00   -0.80378E-01  4512   0.489E+00    0.121E+01
DAV:  31    -0.414411239644E+03    0.71418E-01   -0.32627E-01  4576   0.383E+00    0.122E+01
DAV:  32    -0.414335196696E+03    0.76043E-01   -0.38201E-01  4816   0.375E+00    0.892E+00
DAV:  33    -0.414226414191E+03    0.10878E+00   -0.33152E-01  4432   0.384E+00    0.581E+00
DAV:  34    -0.414198992469E+03    0.27422E-01   -0.20616E-01  4192   0.311E+00    0.523E+00
DAV:  35    -0.414188869924E+03    0.10123E-01   -0.16130E-01  4848   0.255E+00    0.396E+00
DAV:  36    -0.414148151636E+03    0.40718E-01   -0.97984E-02  4256   0.222E+00    0.255E+00
DAV:  37    -0.414141633740E+03    0.65179E-02   -0.29532E-02  4800   0.112E+00    0.200E+00
DAV:  38    -0.414145239023E+03   -0.36053E-02   -0.20180E-02  4336   0.102E+00    0.225E+00
DAV:  39    -0.414136614206E+03    0.86248E-02   -0.19685E-02  4272   0.101E+00    0.142E+00
DAV:  40    -0.414137784276E+03   -0.11701E-02   -0.76705E-03  4688   0.601E-01    0.157E+00
DAV:  41    -0.414135185666E+03    0.25986E-02   -0.71295E-03  4368   0.560E-01    0.111E+00
DAV:  42    -0.414134037181E+03    0.11485E-02   -0.30848E-03  4240   0.395E-01    0.959E-01
DAV:  43    -0.414134349271E+03   -0.31209E-03   -0.29776E-03  4704   0.400E-01    0.953E-01
DAV:  44    -0.414133176243E+03    0.11730E-02   -0.36154E-03  4448   0.417E-01    0.765E-01
DAV:  45    -0.414133408305E+03   -0.23206E-03   -0.17103E-03  4640   0.282E-01    0.799E-01
DAV:  46    -0.414133197252E+03    0.21105E-03   -0.22909E-03  4800   0.311E-01    0.762E-01
DAV:  47    -0.414132794432E+03    0.40282E-03   -0.73539E-04  4752   0.171E-01    0.606E-01
DAV:  48    -0.414132955168E+03   -0.16074E-03   -0.56074E-04  4768   0.165E-01    0.603E-01
DAV:  49    -0.414132626597E+03    0.32857E-03   -0.76950E-04  5072   0.177E-01    0.255E-01
DAV:  50    -0.414132737898E+03   -0.11130E-03   -0.27550E-04  5488   0.101E-01    0.242E-01
DAV:  51    -0.414133135075E+03   -0.39718E-03   -0.35230E-04  4656   0.124E-01    0.176E-01
DAV:  52    -0.414133230080E+03   -0.95005E-04   -0.25556E-04  4224   0.101E-01    0.139E-01
DAV:  53    -0.414133537516E+03   -0.30744E-03   -0.19463E-04  4576   0.879E-02    0.134E-01
DAV:  54    -0.414133604178E+03   -0.66662E-04   -0.12418E-04  4064   0.810E-02    0.675E-02
DAV:  55    -0.414133701083E+03   -0.96906E-04   -0.47647E-05  4752   0.446E-02    0.798E-02
DAV:  56    -0.414133818587E+03   -0.11750E-03   -0.43539E-05  4192   0.475E-02    0.553E-02
DAV:  57    -0.414133912627E+03   -0.94040E-04   -0.39047E-05  4768   0.404E-02    0.661E-02
DAV:  58    -0.414134097485E+03   -0.18486E-03   -0.44419E-05  4944   0.417E-02    0.584E-02
DAV:  59    -0.414134212059E+03   -0.11457E-03   -0.37243E-05  4784   0.402E-02    0.583E-02
DAV:  60    -0.414134284759E+03   -0.72700E-04   -0.23730E-05  4368   0.341E-02
   1 F= -.41413367E+03 E0= -.41398983E+03  d E =-.414134E+03
       N       E                     dE             d eps       ncg     rms          rms(c)
DAV:   1    -0.414403567694E+03   -0.26936E+00   -0.20767E+01  3840   0.649E+00    0.763E-01
DAV:   2    -0.414599923995E+03   -0.19636E+00   -0.36379E-01  5872   0.382E+00    0.813E+00
DAV:   3    -0.414455099341E+03    0.14482E+00   -0.33290E-01  4048   0.370E+00    0.426E+00
DAV:   4    -0.414430754697E+03    0.24345E-01   -0.10284E-01  4816   0.166E+00    0.238E+00
DAV:   5    -0.414430069303E+03    0.68539E-03   -0.50353E-02  4320   0.142E+00    0.217E+00
DAV:   6    -0.414442158494E+03   -0.12089E-01   -0.55751E-02  4464   0.150E+00    0.288E+00
DAV:   7    -0.414425511911E+03    0.16647E-01   -0.48558E-02  4464   0.138E+00    0.154E+00
DAV:   8    -0.414420881569E+03    0.46303E-02   -0.14958E-02  4528   0.814E-01    0.750E-01
DAV:   9    -0.414426623597E+03   -0.57420E-02   -0.16242E-02  4688   0.878E-01    0.150E+00
DAV:  10    -0.414424169019E+03    0.24546E-02   -0.19962E-02  4688   0.917E-01    0.125E+00
DAV:  11    -0.414420217737E+03    0.39513E-02   -0.73994E-03  4464   0.631E-01    0.581E-01
DAV:  12    -0.414420992519E+03   -0.77478E-03   -0.33216E-03  5328   0.394E-01    0.735E-01
DAV:  13    -0.414420810102E+03    0.18242E-03   -0.38904E-03  4784   0.413E-01    0.626E-01
DAV:  14    -0.414419719737E+03    0.10904E-02   -0.18245E-03  4432   0.301E-01    0.192E-01
DAV:  15    -0.414419690510E+03    0.29226E-04   -0.38536E-04  5552   0.119E-01    0.158E-01
DAV:  16    -0.414419795756E+03   -0.10525E-03   -0.32895E-04  4544   0.114E-01    0.237E-01
DAV:  17    -0.414419676047E+03    0.11971E-03   -0.22885E-04  4432   0.101E-01    0.892E-02
DAV:  18    -0.414419665139E+03    0.10908E-04   -0.53169E-05  4368   0.509E-02    0.598E-02
DAV:  19    -0.414419690899E+03   -0.25761E-04   -0.52112E-05  4624   0.481E-02    0.821E-02
DAV:  20    -0.414419697012E+03   -0.61122E-05   -0.47544E-05  4320   0.477E-02    0.440E-02
DAV:  21    -0.414419700024E+03   -0.30122E-05   -0.14332E-05  4144   0.254E-02    0.376E-02
DAV:  22    -0.414419717314E+03   -0.17290E-04   -0.22264E-05  4144   0.290E-02    0.596E-02
DAV:  23    -0.414419727454E+03   -0.10139E-04   -0.19984E-05  3984   0.272E-02    0.251E-02
DAV:  24    -0.414419730419E+03   -0.29657E-05   -0.44676E-06  2384   0.151E-02    0.164E-02
DAV:  25    -0.414419736989E+03   -0.65694E-05   -0.26327E-06  2272   0.113E-02    0.195E-02
DAV:  26    -0.414419751681E+03   -0.14692E-04   -0.36775E-06  2576   0.119E-02    0.160E-02
DAV:  27    -0.414419756032E+03   -0.43512E-05   -0.20114E-06  2272   0.907E-03    0.652E-03
DAV:  28    -0.414419765035E+03   -0.90030E-05   -0.13009E-06  2352   0.750E-03    0.135E-02
DAV:  29    -0.414419785056E+03   -0.20021E-04   -0.18586E-06  2784   0.785E-03    0.852E-03
DAV:  30    -0.414419789822E+03   -0.47658E-05   -0.75466E-07  2288   0.574E-03    0.600E-03
DAV:  31    -0.414419801133E+03   -0.11312E-04   -0.74463E-07  2320   0.561E-03    0.865E-03
DAV:  32    -0.414419814351E+03   -0.13217E-04   -0.98646E-07  2496   0.579E-03    0.576E-03
DAV:  33    -0.414419817824E+03   -0.34733E-05   -0.38432E-07  2256   0.363E-03    0.586E-03
DAV:  34    -0.414419830699E+03   -0.12875E-04   -0.65846E-07  2432   0.425E-03    0.655E-03
DAV:  35    -0.414419835655E+03   -0.49566E-05   -0.46295E-07  2368   0.399E-03    0.269E-03
DAV:  36    -0.414419837951E+03   -0.22956E-05   -0.20059E-07  2208   0.225E-03    0.366E-03
DAV:  37    -0.414419842769E+03   -0.48181E-05   -0.19955E-07  2320   0.209E-03    0.215E-03
DAV:  38    -0.414419843470E+03   -0.70146E-06   -0.71637E-08  2144   0.130E-03
   2 F= -.41441934E+03 E0= -.41427596E+03  d E =-.285667E+00
       N       E                     dE             d eps       ncg     rms          rms(c)
DAV:   1    -0.414938965347E+03   -0.51912E+00   -0.19413E+02  3840   0.202E+01    0.220E+00
DAV:   2    -0.416704570440E+03   -0.17656E+01   -0.42606E+00  5600   0.102E+01    0.248E+01
DAV:   3    -0.415719578042E+03    0.98499E+00   -0.40683E+00  4352   0.996E+00    0.154E+01
DAV:   4    -0.415219163641E+03    0.50041E+00   -0.99149E-01  4064   0.576E+00    0.389E+00
DAV:   5    -0.415429826513E+03   -0.21066E+00   -0.69964E-01  4960   0.508E+00    0.982E+00
DAV:   6    -0.415323653503E+03    0.10617E+00   -0.59608E-01  4480   0.502E+00    0.698E+00
DAV:   7    -0.415210610614E+03    0.11304E+00   -0.26341E-01  4304   0.366E+00    0.392E+00
DAV:   8    -0.415211530755E+03   -0.92014E-03   -0.13273E-01  4496   0.222E+00    0.382E+00
DAV:   9    -0.415249331773E+03   -0.37801E-01   -0.18357E-01  4608   0.292E+00    0.477E+00
DAV:  10    -0.415218799215E+03    0.30533E-01   -0.18309E-01  4448   0.288E+00    0.463E+00
DAV:  11    -0.415203046978E+03    0.15752E-01   -0.56756E-02  4480   0.160E+00    0.377E+00
DAV:  12    -0.415208381418E+03   -0.53344E-02   -0.70810E-02  4640   0.177E+00    0.354E+00
DAV:  13    -0.415184813224E+03    0.23568E-01   -0.64004E-02  4576   0.166E+00    0.186E+00
DAV:  14    -0.415178515826E+03    0.62974E-02   -0.21465E-02  4608   0.948E-01    0.114E+00
DAV:  15    -0.415179701263E+03   -0.11854E-02   -0.14191E-02  4880   0.728E-01    0.128E+00
DAV:  16    -0.415175671583E+03    0.40297E-02   -0.83768E-03  4528   0.589E-01    0.603E-01
DAV:  17    -0.415175009283E+03    0.66230E-03   -0.28958E-03  4464   0.336E-01    0.400E-01
DAV:  18    -0.415175194476E+03   -0.18519E-03   -0.14446E-03  4752   0.243E-01    0.443E-01
DAV:  19    -0.415174849973E+03    0.34450E-03   -0.12466E-03  4304   0.239E-01    0.309E-01
DAV:  20    -0.415174675571E+03    0.17440E-03   -0.65556E-04  4432   0.168E-01    0.188E-01
DAV:  21    -0.415174709693E+03   -0.34122E-04   -0.30535E-04  4384   0.118E-01    0.190E-01
DAV:  22    -0.415174707858E+03    0.18348E-05   -0.32840E-04  4272   0.129E-01    0.164E-01
DAV:  23    -0.415174632945E+03    0.74912E-04   -0.18037E-04  4208   0.977E-02    0.774E-02
DAV:  24    -0.415174660292E+03   -0.27347E-04   -0.93018E-05  4624   0.605E-02    0.107E-01
DAV:  25    -0.415174662087E+03   -0.17953E-05   -0.83637E-05  4448   0.579E-02    0.813E-02
DAV:  26    -0.415174651613E+03    0.10474E-04   -0.41777E-05  4240   0.477E-02    0.501E-02
DAV:  27    -0.415174657512E+03   -0.58989E-05   -0.15315E-05  4320   0.267E-02    0.462E-02
DAV:  28    -0.415174672191E+03   -0.14679E-04   -0.16695E-05  4160   0.265E-02    0.321E-02
DAV:  29    -0.415174672865E+03   -0.67361E-06   -0.76229E-06  2960   0.190E-02
   3 F= -.41517443E+03 E0= -.41503284E+03  d E =-.104076E+01
       N       E                     dE             d eps       ncg     rms          rms(c)
DAV:   1    -0.413263549592E+03    0.19111E+01   -0.88525E+02  3872   0.455E+01    0.504E+00
DAV:   2    -0.418783855696E+03   -0.55203E+01   -0.20184E+01  5648   0.197E+01    0.359E+01
DAV:   3    -0.416700967790E+03    0.20829E+01   -0.79479E+00  4144   0.188E+01    0.287E+01
DAV:   4    -0.415168793117E+03    0.15322E+01   -0.48008E+00  4400   0.119E+01    0.128E+01
DAV:   5    -0.415778208043E+03   -0.60941E+00   -0.28099E+00  5008   0.117E+01    0.192E+01
DAV:   6    -0.415693716939E+03    0.84491E-01   -0.32353E+00  4608   0.113E+01    0.174E+01
DAV:   7    -0.414931897288E+03    0.76182E+00   -0.15653E+00  4304   0.876E+00    0.873E+00
DAV:   8    -0.414925928251E+03    0.59690E-02   -0.78384E-01  4320   0.587E+00    0.919E+00
DAV:   9    -0.415228163389E+03   -0.30224E+00   -0.11645E+00  4528   0.688E+00    0.132E+01
DAV:  10    -0.415266347484E+03   -0.38184E-01   -0.16548E+00  4368   0.809E+00    0.140E+01
DAV:  11    -0.414880997985E+03    0.38535E+00   -0.75143E-01  4400   0.593E+00    0.882E+00
DAV:  12    -0.414874774203E+03    0.62238E-02   -0.36585E-01  4384   0.425E+00    0.850E+00
DAV:  13    -0.414809977737E+03    0.64796E-01   -0.41596E-01  4480   0.402E+00    0.579E+00
DAV:  14    -0.414721492008E+03    0.88486E-01   -0.20424E-01  4320   0.295E+00    0.240E+00
DAV:  15    -0.414711541008E+03    0.99510E-02   -0.46510E-02  4832   0.137E+00    0.152E+00
DAV:  16    -0.414722484424E+03   -0.10943E-01   -0.51621E-02  4560   0.134E+00    0.247E+00
DAV:  17    -0.414708641618E+03    0.13843E-01   -0.44864E-02  4256   0.125E+00    0.108E+00
DAV:  18    -0.414707258653E+03    0.13830E-02   -0.90441E-03  4192   0.671E-01    0.875E-01
DAV:  19    -0.414708552444E+03   -0.12938E-02   -0.82428E-03  4320   0.628E-01    0.110E+00
DAV:  20    -0.414705813695E+03    0.27387E-02   -0.74336E-03  4320   0.572E-01    0.561E-01
DAV:  21    -0.414705552468E+03    0.26123E-03   -0.21921E-03  4512   0.290E-01    0.429E-01
DAV:  22    -0.414706105961E+03   -0.55349E-03   -0.23582E-03  4512   0.335E-01    0.551E-01
DAV:  23    -0.414705305265E+03    0.80070E-03   -0.16168E-03  4288   0.299E-01    0.251E-01
DAV:  24    -0.414705231609E+03    0.73656E-04   -0.44023E-04  4592   0.138E-01    0.184E-01
DAV:  25    -0.414705377295E+03   -0.14569E-03   -0.44637E-04  4512   0.140E-01    0.260E-01
DAV:  26    -0.414705215044E+03    0.16225E-03   -0.33693E-04  4336   0.131E-01    0.106E-01
DAV:  27    -0.414705202175E+03    0.12869E-04   -0.80520E-05  4400   0.652E-02    0.710E-02
DAV:  28    -0.414705235038E+03   -0.32862E-04   -0.63197E-05  4384   0.585E-02    0.891E-02
DAV:  29    -0.414705218552E+03    0.16485E-04   -0.45003E-05  4160   0.528E-02    0.268E-02
DAV:  30    -0.414705223889E+03   -0.53368E-05   -0.11364E-05  4224   0.221E-02    0.276E-02
DAV:  31    -0.414705241946E+03   -0.18056E-04   -0.89434E-06  3328   0.216E-02    0.284E-02
DAV:  32    -0.414705245524E+03   -0.35785E-05   -0.51039E-06  2432   0.168E-02    0.177E-02
DAV:  33    -0.414705259532E+03   -0.14008E-04   -0.36560E-06  2480   0.138E-02    0.251E-02
DAV:  34    -0.414705273701E+03   -0.14169E-04   -0.40699E-06  2768   0.136E-02    0.124E-02
DAV:  35    -0.414705277426E+03   -0.37247E-05   -0.11328E-06  2272   0.709E-03    0.108E-02
DAV:  36    -0.414705293224E+03   -0.15798E-04   -0.14638E-06  2432   0.726E-03    0.108E-02
DAV:  37    -0.414705298715E+03   -0.54913E-05   -0.10553E-06  2384   0.649E-03    0.516E-03
DAV:  38    -0.414705302596E+03   -0.38808E-05   -0.49141E-07  2192   0.421E-03    0.637E-03
DAV:  39    -0.414705319628E+03   -0.17032E-04   -0.11038E-06  2576   0.460E-03    0.591E-03
DAV:  40    -0.414705323452E+03   -0.38240E-05   -0.43972E-07  2352   0.391E-03    0.435E-03
DAV:  41    -0.414705334678E+03   -0.11226E-04   -0.70599E-07  2448   0.427E-03    0.706E-03
DAV:  42    -0.414705341470E+03   -0.67918E-05   -0.62809E-07  2464   0.418E-03    0.254E-03
DAV:  43    -0.414705343736E+03   -0.22666E-05   -0.25733E-07  2240   0.219E-03    0.327E-03
DAV:  44    -0.414705348768E+03   -0.50314E-05   -0.30453E-07  2336   0.204E-03    0.189E-03
DAV:  45    -0.414705349987E+03   -0.12191E-05   -0.12249E-07  2256   0.156E-03    0.186E-03
DAV:  46    -0.414705353319E+03   -0.33318E-05   -0.16705E-07  2288   0.141E-03    0.201E-03
DAV:  47    -0.414705353864E+03   -0.54487E-06   -0.69650E-08  2160   0.128E-03
   4 F= -.41470534E+03 E0= -.41456809E+03  d E =-.571666E+00
       N       E                     dE             d eps       ncg     rms          rms(c)
DAV:   1    -0.415299422235E+03   -0.59407E+00   -0.40669E+02  3840   0.285E+01    0.188E+01
DAV:   2    -0.499657476658E+03   -0.84358E+02   -0.16262E+02  4592   0.134E+02    0.972E+01
DAV:   3    -0.485738623868E+03    0.13919E+02   -0.79731E+01  5072   0.957E+01    0.886E+01
DAV:   4    -0.442402565775E+03    0.43336E+02   -0.36386E+01  5840   0.559E+01    0.634E+01
DAV:   5    -0.428231457644E+03    0.14171E+02   -0.17990E+01  6416   0.350E+01    0.372E+01
DAV:   6    -0.425667842918E+03    0.25636E+01   -0.16637E+01  4480   0.304E+01    0.387E+01
DAV:   7    -0.421400005162E+03    0.42678E+01   -0.12564E+01  5312   0.265E+01    0.378E+01
DAV:   8    -0.417204613929E+03    0.41954E+01   -0.70244E+00  5696   0.168E+01    0.180E+01
DAV:   9    -0.416535362978E+03    0.66925E+00   -0.23062E+00  5152   0.832E+00    0.129E+01
DAV:  10    -0.416362614882E+03    0.17275E+00   -0.10376E+00  4480   0.639E+00    0.133E+01
DAV:  11    -0.415758369673E+03    0.60425E+00   -0.92729E-01  4928   0.699E+00    0.907E+00
DAV:  12    -0.415621619303E+03    0.13675E+00   -0.71053E-01  5600   0.497E+00    0.689E+00
DAV:  13    -0.415737448702E+03   -0.11583E+00   -0.68844E-01  4560   0.542E+00    0.911E+00
DAV:  14    -0.415626915389E+03    0.11053E+00   -0.71244E-01  4448   0.572E+00    0.800E+00
DAV:  15    -0.415486067321E+03    0.14085E+00   -0.39603E-01  4208   0.396E+00    0.388E+00
DAV:  16    -0.415622275694E+03   -0.13621E+00   -0.40271E-01  4656   0.427E+00    0.760E+00
DAV:  17    -0.415530670071E+03    0.91606E-01   -0.42687E-01  4624   0.418E+00    0.545E+00
DAV:  18    -0.415469425011E+03    0.61245E-01   -0.18798E-01  4528   0.277E+00    0.315E+00
DAV:  19    -0.415465845715E+03    0.35793E-02   -0.74572E-02  4656   0.165E+00    0.284E+00
DAV:  20    -0.415460734298E+03    0.51114E-02   -0.61757E-02  4544   0.161E+00    0.261E+00
DAV:  21    -0.415453565345E+03    0.71690E-02   -0.34185E-02  4400   0.122E+00    0.231E+00
DAV:  22    -0.415449526893E+03    0.40385E-02   -0.19461E-02  4512   0.930E-01    0.166E+00
DAV:  23    -0.415445479501E+03    0.40474E-02   -0.22123E-02  4464   0.956E-01    0.127E+00
DAV:  24    -0.415445896126E+03   -0.41662E-03   -0.11223E-02  4688   0.711E-01    0.134E+00
DAV:  25    -0.415444782339E+03    0.11138E-02   -0.12969E-02  4480   0.762E-01    0.104E+00
DAV:  26    -0.415442709677E+03    0.20727E-02   -0.48505E-03  4448   0.520E-01    0.784E-01
DAV:  27    -0.415442612769E+03    0.96908E-04   -0.23010E-03  4400   0.352E-01    0.664E-01
DAV:  28    -0.415441636815E+03    0.97595E-03   -0.20445E-03  4160   0.315E-01    0.277E-01
DAV:  29    -0.415441663643E+03   -0.26827E-04   -0.65757E-04  4656   0.163E-01    0.266E-01
DAV:  30    -0.415441662482E+03    0.11608E-05   -0.53347E-04  4384   0.155E-01    0.219E-01
DAV:  31    -0.415441536955E+03    0.12553E-03   -0.27450E-04  4112   0.126E-01    0.989E-02
DAV:  32    -0.415441605327E+03   -0.68372E-04   -0.19053E-04  4432   0.960E-02    0.175E-01
DAV:  33    -0.415441548868E+03    0.56459E-04   -0.14717E-04  4176   0.862E-02    0.808E-02
DAV:  34    -0.415441549421E+03   -0.55339E-06   -0.46585E-05  4144   0.514E-02    0.694E-02
DAV:  35    -0.415441561924E+03   -0.12503E-04   -0.40786E-05  4320   0.487E-02    0.790E-02
DAV:  36    -0.415441552371E+03    0.95531E-05   -0.27998E-05  4192   0.396E-02    0.557E-02
DAV:  37    -0.415441553535E+03   -0.11633E-05   -0.62485E-06  2880   0.172E-02    0.518E-02
DAV:  38    -0.415441554973E+03   -0.14387E-05   -0.74531E-06  3296   0.198E-02    0.292E-02
DAV:  39    -0.415441555015E+03   -0.41706E-07   -0.26306E-06  2336   0.109E-02
   5 F= -.41544148E+03 E0= -.41530116E+03  d E =-.130781E+01
       N       E                     dE             d eps       ncg     rms          rms(c)
DAV:   1    -0.415456128495E+03   -0.14574E-01   -0.22687E+01  3840   0.678E+00    0.112E+00
DAV:   2    -0.416599388151E+03   -0.11433E+01   -0.97062E-01  6032   0.700E+00    0.288E+01
DAV:   3    -0.415732796498E+03    0.86659E+00   -0.42153E+00  4176   0.693E+00    0.117E+01
DAV:   4    -0.415499060722E+03    0.23374E+00   -0.50422E-01  5744   0.367E+00    0.301E+00
DAV:   5    -0.415491874095E+03    0.71866E-02   -0.10149E-01  4800   0.201E+00    0.261E+00
DAV:   6    -0.415525156601E+03   -0.33283E-01   -0.12380E-01  4464   0.222E+00    0.438E+00
DAV:   7    -0.415487386418E+03    0.37770E-01   -0.11058E-01  4448   0.205E+00    0.224E+00
DAV:   8    -0.415477701076E+03    0.96853E-02   -0.30418E-02  4448   0.119E+00    0.119E+00
DAV:   9    -0.415489772595E+03   -0.12072E-01   -0.33781E-02  4592   0.125E+00    0.228E+00
DAV:  10    -0.415483162333E+03    0.66103E-02   -0.40901E-02  4544   0.131E+00    0.178E+00
DAV:  11    -0.415475186758E+03    0.79756E-02   -0.15840E-02  4368   0.902E-01    0.763E-01
DAV:  12    -0.415476506358E+03   -0.13196E-02   -0.80422E-03  4848   0.588E-01    0.101E+00
DAV:  13    -0.415475876168E+03    0.63019E-03   -0.78432E-03  4544   0.584E-01    0.813E-01
DAV:  14    -0.415473876622E+03    0.19995E-02   -0.34756E-03  4320   0.428E-01    0.300E-01
DAV:  15    -0.415473793393E+03    0.83229E-04   -0.71449E-04  5648   0.149E-01    0.228E-01
DAV:  16    -0.415473830452E+03   -0.37058E-04   -0.38644E-04  4480   0.123E-01    0.252E-01
DAV:  17    -0.415473667010E+03    0.16344E-03   -0.24639E-04  4224   0.106E-01    0.111E-01
DAV:  18    -0.415473663323E+03    0.36869E-05   -0.74374E-05  4432   0.609E-02    0.101E-01
DAV:  19    -0.415473718123E+03   -0.54800E-04   -0.16299E-04  4688   0.891E-02    0.162E-01
DAV:  20    -0.415473649689E+03    0.68434E-04   -0.16628E-04  4784   0.919E-02    0.832E-02
DAV:  21    -0.415473651358E+03   -0.16695E-05   -0.64916E-05  4544   0.474E-02    0.748E-02
DAV:  22    -0.415473678632E+03   -0.27274E-04   -0.77843E-05  4656   0.569E-02    0.110E-01
DAV:  23    -0.415473650543E+03    0.28089E-04   -0.64316E-05  4432   0.546E-02    0.535E-02
DAV:  24    -0.415473649230E+03    0.13135E-05   -0.20673E-05  4064   0.296E-02    0.285E-02
DAV:  25    -0.415473652771E+03   -0.35412E-05   -0.14035E-05  3760   0.258E-02    0.394E-02
DAV:  26    -0.415473649187E+03    0.35839E-05   -0.10683E-05  3296   0.240E-02    0.252E-02
DAV:  27    -0.415473648301E+03    0.88612E-06   -0.32899E-06  2096   0.138E-02
   6 F= -.41547358E+03 E0= -.41533403E+03  d E =-.133991E+01
       N       E                     dE             d eps       ncg     rms          rms(c)
DAV:   1    -0.415590737033E+03   -0.11709E+00   -0.76560E+01  3840   0.130E+01    0.172E+00
DAV:   2    -0.420423588184E+03   -0.48329E+01   -0.38025E+00  5792   0.140E+01    0.532E+01
DAV:   3    -0.416187533769E+03    0.42361E+01   -0.71163E+00  4192   0.126E+01    0.156E+01
DAV:   4    -0.415769423806E+03    0.41811E+00   -0.14010E+00  5616   0.606E+00    0.677E+00
DAV:   5    -0.415770728878E+03   -0.13051E-02   -0.46811E-01  4960   0.408E+00    0.654E+00
DAV:   6    -0.415853369266E+03   -0.82640E-01   -0.49280E-01  4336   0.427E+00    0.854E+00
DAV:   7    -0.415705264643E+03    0.14810E+00   -0.38231E-01  4336   0.382E+00    0.351E+00
DAV:   8    -0.415673441182E+03    0.31823E-01   -0.87916E-02  4256   0.193E+00    0.166E+00
DAV:   9    -0.415689893005E+03   -0.16452E-01   -0.74614E-02  4528   0.166E+00    0.295E+00
DAV:  10    -0.415686025777E+03    0.38672E-02   -0.79812E-02  4448   0.177E+00    0.261E+00
DAV:  11    -0.415668493998E+03    0.17532E-01   -0.44741E-02  4336   0.146E+00    0.105E+00
DAV:  12    -0.415674194384E+03   -0.57004E-02   -0.23411E-02  4608   0.106E+00    0.173E+00
DAV:  13    -0.415681044736E+03   -0.68504E-02   -0.33629E-02  4560   0.126E+00    0.231E+00
DAV:  14    -0.415667609989E+03    0.13435E-01   -0.22370E-02  4400   0.110E+00    0.922E-01
DAV:  15    -0.415666961243E+03    0.64875E-03   -0.50606E-03  4768   0.474E-01    0.755E-01
DAV:  16    -0.415667512406E+03   -0.55116E-03   -0.50309E-03  4448   0.472E-01    0.783E-01
DAV:  17    -0.415665814876E+03    0.16975E-02   -0.36578E-03  4384   0.408E-01    0.314E-01
DAV:  18    -0.415665659537E+03    0.15534E-03   -0.77459E-04  4880   0.162E-01    0.177E-01
DAV:  19    -0.415665718139E+03   -0.58602E-04   -0.40976E-04  4464   0.126E-01    0.209E-01
DAV:  20    -0.415665660068E+03    0.58072E-04   -0.34059E-04  4352   0.121E-01    0.154E-01
DAV:  21    -0.415665606859E+03    0.53208E-04   -0.13861E-04  4272   0.810E-02    0.741E-02
DAV:  22    -0.415665636324E+03   -0.29464E-04   -0.10656E-04  4368   0.704E-02    0.115E-01
DAV:  23    -0.415665611653E+03    0.24670E-04   -0.10109E-04  4304   0.660E-02    0.870E-02
DAV:  24    -0.415665605644E+03    0.60093E-05   -0.35619E-05  4160   0.405E-02    0.667E-02
DAV:  25    -0.415665610452E+03   -0.48082E-05   -0.24366E-05  4320   0.346E-02    0.683E-02
DAV:  26    -0.415665601075E+03    0.93777E-05   -0.22666E-05  4192   0.343E-02    0.294E-02
DAV:  27    -0.415665600575E+03    0.49963E-06   -0.58364E-06  2448   0.185E-02
   7 F= -.41566556E+03 E0= -.41552557E+03  d E =-.191983E+00
       N       E                     dE             d eps       ncg     rms          rms(c)
DAV:   1    -0.415668702671E+03   -0.31016E-02   -0.37211E+00  3840   0.285E+00    0.441E-01
DAV:   2    -0.416001868704E+03   -0.33317E+00   -0.40772E-01  5008   0.392E+00    0.132E+01
DAV:   3    -0.415731592437E+03    0.27028E+00   -0.72131E-01  4576   0.390E+00    0.508E+00
DAV:   4    -0.415674955362E+03    0.56637E-01   -0.84090E-02  4784   0.177E+00    0.105E+00
DAV:   5    -0.415677285757E+03   -0.23304E-02   -0.24451E-02  5856   0.969E-01    0.143E+00
DAV:   6    -0.415681465557E+03   -0.41798E-02   -0.24702E-02  4512   0.991E-01    0.195E+00
DAV:   7    -0.415673173668E+03    0.82919E-02   -0.17260E-02  4400   0.832E-01    0.686E-01
DAV:   8    -0.415672237788E+03    0.93588E-03   -0.35047E-03  4352   0.385E-01    0.385E-01
DAV:   9    -0.415673546735E+03   -0.13089E-02   -0.36525E-03  4576   0.409E-01    0.748E-01
DAV:  10    -0.415672864106E+03    0.68263E-03   -0.37163E-03  4512   0.425E-01    0.583E-01
DAV:  11    -0.415672213107E+03    0.65100E-03   -0.18123E-03  4352   0.300E-01    0.376E-01
DAV:  12    -0.415672325486E+03   -0.11238E-03   -0.98210E-04  4464   0.214E-01    0.389E-01
DAV:  13    -0.415672216878E+03    0.10861E-03   -0.11003E-03  4512   0.218E-01    0.307E-01
DAV:  14    -0.415671994487E+03    0.22239E-03   -0.68991E-04  4416   0.161E-01    0.161E-01
DAV:  15    -0.415671989188E+03    0.52989E-05   -0.22794E-04  4448   0.932E-02    0.137E-01
DAV:  16    -0.415671977151E+03    0.12037E-04   -0.11594E-04  4368   0.782E-02    0.112E-01
DAV:  17    -0.415671942120E+03    0.35031E-04   -0.55367E-05  4128   0.575E-02    0.472E-02
DAV:  18    -0.415671945315E+03   -0.31948E-05   -0.13953E-05  4192   0.238E-02    0.465E-02
DAV:  19    -0.415671945826E+03   -0.51109E-06   -0.18948E-05  4016   0.280E-02    0.419E-02
DAV:  20    -0.415671942834E+03    0.29924E-05   -0.11260E-05  2896   0.221E-02    0.274E-02
DAV:  21    -0.415671944665E+03   -0.18314E-05   -0.64491E-06  2304   0.166E-02    0.350E-02
DAV:  22    -0.415671945703E+03   -0.10381E-05   -0.92625E-06  2416   0.193E-02    0.334E-02
DAV:  23    -0.415671943307E+03    0.23963E-05   -0.60497E-06  2208   0.163E-02    0.107E-02
DAV:  24    -0.415671943545E+03   -0.23814E-06   -0.12101E-06  2080   0.750E-03
   8 F= -.41567192E+03 E0= -.41553185E+03  d E =-.198337E+00
       N       E                     dE             d eps       ncg     rms          rms(c)
DAV:   1    -0.415725446286E+03   -0.53503E-01   -0.93853E+01  3840   0.141E+01    0.354E+00
DAV:   2    -0.418338639781E+03   -0.26132E+01   -0.71617E+00  4160   0.213E+01    0.182E+01
DAV:   3    -0.417378146166E+03    0.96049E+00   -0.49933E+00  4320   0.183E+01    0.253E+01
DAV:   4    -0.416183834470E+03    0.11943E+01   -0.33060E+00  6464   0.919E+00    0.118E+01
DAV:   5    -0.415850519751E+03    0.33331E+00   -0.66284E-01  5040   0.485E+00    0.384E+00
DAV:   6    -0.415865910575E+03   -0.15391E-01   -0.24246E-01  5232   0.281E+00    0.460E+00
DAV:   7    -0.415869480063E+03   -0.35695E-02   -0.21078E-01  4208   0.305E+00    0.473E+00
DAV:   8    -0.415835051741E+03    0.34428E-01   -0.16717E-01  4272   0.254E+00    0.318E+00
DAV:   9    -0.415826184250E+03    0.88675E-02   -0.84330E-02  4256   0.190E+00    0.244E+00
DAV:  10    -0.415834958166E+03   -0.87739E-02   -0.82222E-02  4688   0.196E+00    0.305E+00
DAV:  11    -0.415818688893E+03    0.16269E-01   -0.69987E-02  4960   0.166E+00    0.197E+00
DAV:  12    -0.415823981801E+03   -0.52929E-02   -0.47867E-02  4736   0.147E+00    0.238E+00
DAV:  13    -0.415823054777E+03    0.92702E-03   -0.57062E-02  4656   0.165E+00    0.248E+00
DAV:  14    -0.415812569121E+03    0.10486E-01   -0.34273E-02  4896   0.117E+00    0.170E+00
DAV:  15    -0.415812822310E+03   -0.25319E-03   -0.12631E-02  4480   0.766E-01    0.160E+00
DAV:  16    -0.415808685338E+03    0.41370E-02   -0.11697E-02  4544   0.721E-01    0.959E-01
DAV:  17    -0.415806395591E+03    0.22897E-02   -0.46446E-03  4400   0.429E-01    0.303E-01
DAV:  18    -0.415806522326E+03   -0.12673E-03   -0.13909E-03  5168   0.235E-01    0.346E-01
DAV:  19    -0.415806372974E+03    0.14935E-03   -0.10712E-03  4592   0.210E-01    0.300E-01
DAV:  20    -0.415806248899E+03    0.12407E-03   -0.48646E-04  4176   0.143E-01    0.206E-01
DAV:  21    -0.415806260638E+03   -0.11739E-04   -0.24411E-04  4304   0.951E-02    0.203E-01
DAV:  22    -0.415806270536E+03   -0.98982E-05   -0.30020E-04  4256   0.112E-01    0.179E-01
DAV:  23    -0.415806183933E+03    0.86603E-04   -0.17907E-04  4272   0.955E-02    0.649E-02
DAV:  24    -0.415806196963E+03   -0.13030E-04   -0.64550E-05  4416   0.552E-02    0.826E-02
DAV:  25    -0.415806202114E+03   -0.51504E-05   -0.68925E-05  4480   0.531E-02    0.872E-02
DAV:  26    -0.415806182808E+03    0.19306E-04   -0.45384E-05  4432   0.496E-02    0.422E-02
DAV:  27    -0.415806183332E+03   -0.52356E-06   -0.92226E-06  3424   0.204E-02
   9 F= -.41580616E+03 E0= -.41566423E+03  d E =-.134245E+00
       N       E                     dE             d eps       ncg     rms          rms(c)
DAV:   1    -0.415808126013E+03   -0.19432E-02   -0.50022E+00  3840   0.324E+00    0.573E-01
DAV:   2    -0.415951545405E+03   -0.14342E+00   -0.23167E-01  4288   0.356E+00    0.714E+00
DAV:   3    -0.415967175107E+03   -0.15630E-01   -0.49145E-01  4720   0.365E+00    0.860E+00
DAV:   4    -0.415815958899E+03    0.15122E+00   -0.24219E-01  4480   0.290E+00    0.115E+00
DAV:   5    -0.415815265294E+03    0.69360E-03   -0.26515E-02  5664   0.933E-01    0.126E+00
DAV:   6    -0.415820599732E+03   -0.53344E-02   -0.23253E-02  4336   0.995E-01    0.182E+00
DAV:   7    -0.415812513220E+03    0.80865E-02   -0.16452E-02  4288   0.866E-01    0.753E-01
DAV:   8    -0.415811667754E+03    0.84547E-03   -0.44898E-03  4416   0.415E-01    0.456E-01
DAV:   9    -0.415812527418E+03   -0.85966E-03   -0.35576E-03  4400   0.406E-01    0.666E-01
DAV:  10    -0.415812291987E+03    0.23543E-03   -0.36077E-03  4416   0.414E-01    0.636E-01
DAV:  11    -0.415811429574E+03    0.86241E-03   -0.18685E-03  4288   0.316E-01    0.355E-01
DAV:  12    -0.415811699323E+03   -0.26975E-03   -0.11339E-03  4432   0.241E-01    0.444E-01
DAV:  13    -0.415811880242E+03   -0.18092E-03   -0.16233E-03  4480   0.281E-01    0.459E-01
DAV:  14    -0.415811242070E+03    0.63817E-03   -0.11431E-03  4352   0.238E-01    0.162E-01
DAV:  15    -0.415811248359E+03   -0.62890E-05   -0.26597E-04  5392   0.990E-02    0.119E-01
DAV:  16    -0.415811292611E+03   -0.44253E-04   -0.21137E-04  4704   0.904E-02    0.167E-01
DAV:  17    -0.415811232656E+03    0.59956E-04   -0.19964E-04  4560   0.846E-02    0.909E-02
DAV:  18    -0.415811215623E+03    0.17032E-04   -0.42274E-05  4432   0.429E-02    0.250E-02
DAV:  19    -0.415811222150E+03   -0.65269E-05   -0.14624E-05  4112   0.264E-02    0.397E-02
DAV:  20    -0.415811219596E+03    0.25536E-05   -0.10954E-05  3424   0.238E-02    0.330E-02
DAV:  21    -0.415811218919E+03    0.67760E-06   -0.45058E-06  2192   0.152E-02
  10 F= -.41581120E+03 E0= -.41566884E+03  d E =-.139281E+00
       N       E                     dE             d eps       ncg     rms          rms(c)
DAV:   1    -0.415827882036E+03   -0.16662E-01   -0.43112E+01  3840   0.959E+00    0.156E+00
DAV:   2    -0.416611906752E+03   -0.78402E+00   -0.15635E+00  4224   0.909E+00    0.156E+01
DAV:   3    -0.416962397704E+03   -0.35049E+00   -0.30780E+00  4768   0.921E+00    0.220E+01
DAV:   4    -0.415912889092E+03    0.10495E+01   -0.18391E+00  4368   0.777E+00    0.383E+00
DAV:   5    -0.415884265865E+03    0.28623E-01   -0.19624E-01  5648   0.256E+00    0.288E+00
DAV:   6    -0.415919698564E+03   -0.35433E-01   -0.14982E-01  4544   0.241E+00    0.451E+00
DAV:   7    -0.415881116425E+03    0.38582E-01   -0.11480E-01  4304   0.217E+00    0.262E+00
DAV:   8    -0.415869757340E+03    0.11359E-01   -0.43623E-02  4336   0.128E+00    0.150E+00
DAV:   9    -0.415879461564E+03   -0.97042E-02   -0.34477E-02  4272   0.131E+00    0.230E+00
DAV:  10    -0.415877808224E+03    0.16533E-02   -0.51812E-02  4368   0.152E+00    0.218E+00
DAV:  11    -0.415866021747E+03    0.11786E-01   -0.25543E-02  4432   0.111E+00    0.929E-01
DAV:  12    -0.415869161974E+03   -0.31402E-02   -0.13971E-02  4736   0.847E-01    0.141E+00
DAV:  13    -0.415867353573E+03    0.18084E-02   -0.16472E-02  4704   0.844E-01    0.119E+00
DAV:  14    -0.415863663894E+03    0.36897E-02   -0.89896E-03  4528   0.615E-01    0.409E-01
DAV:  15    -0.415864473412E+03   -0.80952E-03   -0.36861E-03  4912   0.415E-01    0.626E-01
DAV:  16    -0.415864512290E+03   -0.38878E-04   -0.39794E-03  4544   0.423E-01    0.690E-01
DAV:  17    -0.415863318226E+03    0.11941E-02   -0.20781E-03  4384   0.309E-01    0.183E-01
DAV:  18    -0.415863288448E+03    0.29778E-04   -0.31138E-04  5648   0.111E-01    0.128E-01
DAV:  19    -0.415863334225E+03   -0.45777E-04   -0.20882E-04  4352   0.102E-01    0.170E-01
DAV:  20    -0.415863271804E+03    0.62421E-04   -0.15358E-04  4288   0.887E-02    0.102E-01
DAV:  21    -0.415863272807E+03   -0.10028E-05   -0.63176E-05  4464   0.482E-02    0.970E-02
DAV:  22    -0.415863291334E+03   -0.18527E-04   -0.92239E-05  4592   0.602E-02    0.115E-01
DAV:  23    -0.415863258969E+03    0.32365E-04   -0.74558E-05  4480   0.554E-02    0.478E-02
DAV:  24    -0.415863257521E+03    0.14475E-05   -0.21276E-05  4224   0.303E-02    0.340E-02
DAV:  25    -0.415863263449E+03   -0.59274E-05   -0.21856E-05  4176   0.308E-02    0.518E-02
DAV:  26    -0.415863255969E+03    0.74800E-05   -0.15541E-05  3888   0.280E-02    0.193E-02
DAV:  27    -0.415863255858E+03    0.11030E-06   -0.24881E-06  2208   0.125E-02
  11 F= -.41586324E+03 E0= -.41571997E+03  d E =-.520449E-01
       N       E                     dE             d eps       ncg     rms          rms(c)
DAV:   1    -0.415863613634E+03   -0.35767E-03   -0.30060E+00  3840   0.253E+00    0.325E-01
DAV:   2    -0.415929513032E+03   -0.65899E-01   -0.10595E-01  5008   0.205E+00    0.548E+00
DAV:   3    -0.415895347016E+03    0.34166E-01   -0.16250E-01  4448   0.210E+00    0.349E+00
DAV:   4    -0.415866528053E+03    0.28819E-01   -0.42520E-02  4400   0.144E+00    0.549E-01
DAV:   5    -0.415867616957E+03   -0.10889E-02   -0.97158E-03  5632   0.577E-01    0.805E-01
DAV:   6    -0.415868298083E+03   -0.68113E-03   -0.91984E-03  4384   0.570E-01    0.976E-01
DAV:   7    -0.415865930334E+03    0.23677E-02   -0.60479E-03  4352   0.483E-01    0.327E-01
DAV:   8    -0.415866392836E+03   -0.46250E-03   -0.21137E-03  4480   0.298E-01    0.511E-01
DAV:   9    -0.415867503790E+03   -0.11110E-02   -0.38344E-03  4432   0.389E-01    0.819E-01
DAV:  10    -0.415866293732E+03    0.12101E-02   -0.38189E-03  4496   0.388E-01    0.487E-01
DAV:  11    -0.415865810154E+03    0.48358E-03   -0.13953E-03  4400   0.237E-01    0.235E-01
DAV:  12    -0.415866019623E+03   -0.20947E-03   -0.74010E-04  5104   0.191E-01    0.311E-01
DAV:  13    -0.415865842783E+03    0.17684E-03   -0.61953E-04  4432   0.182E-01    0.219E-01
DAV:  14    -0.415865721726E+03    0.12106E-03   -0.20549E-04  4432   0.102E-01    0.664E-02
DAV:  15    -0.415865728438E+03   -0.67120E-05   -0.58937E-05  5616   0.498E-02    0.587E-02
DAV:  16    -0.415865738164E+03   -0.97260E-05   -0.39607E-05  4320   0.462E-02    0.772E-02
DAV:  17    -0.415865721422E+03    0.16743E-04   -0.28259E-05  4176   0.386E-02    0.314E-02
DAV:  18    -0.415865721925E+03   -0.50345E-06   -0.77471E-06  2784   0.195E-02
  12 F= -.41586571E+03 E0= -.41572225E+03  d E =-.545137E-01
       N       E                     dE             d eps       ncg     rms          rms(c)
DAV:   1    -0.415877010139E+03   -0.11289E-01   -0.92581E+00  3840   0.455E+00    0.527E-01
DAV:   2    -0.416024896231E+03   -0.14789E+00   -0.27914E-01  4656   0.338E+00    0.694E+00
DAV:   3    -0.415944925511E+03    0.79971E-01   -0.29312E-01  4416   0.346E+00    0.562E+00
DAV:   4    -0.415890115995E+03    0.54810E-01   -0.10958E-01  4704   0.177E+00    0.145E+00
DAV:   5    -0.415886510326E+03    0.36057E-02   -0.22684E-02  4704   0.891E-01    0.956E-01
DAV:   6    -0.415891765052E+03   -0.52547E-02   -0.19236E-02  4320   0.858E-01    0.168E+00
DAV:   7    -0.415887310922E+03    0.44541E-02   -0.17303E-02  4304   0.848E-01    0.107E+00
DAV:   8    -0.415884661593E+03    0.26493E-02   -0.74018E-03  4256   0.582E-01    0.507E-01
DAV:   9    -0.415886904167E+03   -0.22426E-02   -0.69722E-03  4528   0.545E-01    0.982E-01
DAV:  10    -0.415885781266E+03    0.11229E-02   -0.80712E-03  4544   0.573E-01    0.814E-01
DAV:  11    -0.415884512789E+03    0.12685E-02   -0.34711E-03  4464   0.390E-01    0.512E-01
DAV:  12    -0.415884552383E+03   -0.39594E-04   -0.14316E-03  4800   0.255E-01    0.489E-01
DAV:  13    -0.415884363071E+03    0.18931E-03   -0.11698E-03  4592   0.239E-01    0.340E-01
DAV:  14    -0.415884019775E+03    0.34330E-03   -0.55479E-04  4304   0.177E-01    0.114E-01
DAV:  15    -0.415884041165E+03   -0.21389E-04   -0.14719E-04  5504   0.753E-02    0.111E-01
DAV:  16    -0.415884059977E+03   -0.18812E-04   -0.11977E-04  4464   0.745E-02    0.127E-01
DAV:  17    -0.415884019463E+03    0.40514E-04   -0.84211E-05  4368   0.659E-02    0.627E-02
DAV:  18    -0.415884015887E+03    0.35756E-05   -0.22607E-05  4240   0.326E-02    0.458E-02
DAV:  19    -0.415884025939E+03   -0.10052E-04   -0.26882E-05  4288   0.348E-02    0.645E-02
DAV:  20    -0.415884017038E+03    0.89015E-05   -0.29216E-05  4256   0.347E-02    0.442E-02
DAV:  21    -0.415884015024E+03    0.20142E-05   -0.87289E-06  2560   0.201E-02    0.265E-02
DAV:  22    -0.415884017635E+03   -0.26114E-05   -0.65184E-06  2496   0.182E-02    0.337E-02
DAV:  23    -0.415884014602E+03    0.30336E-05   -0.60686E-06  2240   0.175E-02    0.127E-02
DAV:  24    -0.415884014616E+03   -0.14290E-07   -0.14320E-06  2080   0.804E-03
  13 F= -.41588400E+03 E0= -.41574039E+03  d E =-.182942E-01
       N       E                     dE             d eps       ncg     rms          rms(c)
DAV:   1    -0.415884805339E+03   -0.79074E-03   -0.41010E+00  3840   0.303E+00    0.330E-01
DAV:   2    -0.415945347376E+03   -0.60542E-01   -0.11364E-01  4848   0.211E+00    0.462E+00
DAV:   3    -0.415913959078E+03    0.31388E-01   -0.12568E-01  4432   0.217E+00    0.370E+00
DAV:   4    -0.415889959089E+03    0.24000E-01   -0.44340E-02  4592   0.116E+00    0.848E-01
DAV:   5    -0.415888985337E+03    0.97375E-03   -0.95110E-03  4912   0.564E-01    0.660E-01
DAV:   6    -0.415891365147E+03   -0.23798E-02   -0.85273E-03  4288   0.575E-01    0.114E+00
DAV:   7    -0.415889074738E+03    0.22904E-02   -0.74130E-03  4240   0.562E-01    0.658E-01
DAV:   8    -0.415888082401E+03    0.99234E-03   -0.30207E-03  4240   0.372E-01    0.317E-01
DAV:   9    -0.415889238099E+03   -0.11557E-02   -0.31822E-03  4576   0.373E-01    0.681E-01
DAV:  10    -0.415888617381E+03    0.62072E-03   -0.34863E-03  4592   0.388E-01    0.546E-01
DAV:  11    -0.415888058022E+03    0.55936E-03   -0.13758E-03  4528   0.253E-01    0.338E-01
DAV:  12    -0.415888055889E+03    0.21328E-05   -0.52367E-04  4992   0.156E-01    0.308E-01
DAV:  13    -0.415887971326E+03    0.84563E-04   -0.44332E-04  4544   0.145E-01    0.198E-01
DAV:  14    -0.415887853001E+03    0.11833E-03   -0.21218E-04  4336   0.106E-01    0.708E-02
DAV:  15    -0.415887861148E+03   -0.81469E-05   -0.56927E-05  5120   0.461E-02    0.623E-02
DAV:  16    -0.415887869764E+03   -0.86162E-05   -0.41801E-05  4336   0.438E-02    0.754E-02
DAV:  17    -0.415887855929E+03    0.13834E-04   -0.30006E-05  4272   0.393E-02    0.370E-02
DAV:  18    -0.415887854531E+03    0.13982E-05   -0.87337E-06  3008   0.207E-02    0.256E-02
DAV:  19    -0.415887858676E+03   -0.41447E-05   -0.97114E-06  2976   0.220E-02    0.374E-02
DAV:  20    -0.415887855531E+03    0.31449E-05   -0.98233E-06  2448   0.211E-02    0.294E-02
DAV:  21    -0.415887855188E+03    0.34270E-06   -0.35287E-06  2112   0.119E-02
  14 F= -.41588785E+03 E0= -.41574416E+03  d E =-.221354E-01
       N       E                     dE             d eps       ncg     rms          rms(c)
DAV:   1    -0.415891698808E+03   -0.38433E-02   -0.88275E+00  3840   0.442E+00    0.590E-01
DAV:   2    -0.416243434695E+03   -0.35174E+00   -0.50008E-01  4560   0.460E+00    0.119E+01
DAV:   3    -0.416013527804E+03    0.22991E+00   -0.71634E-01  5184   0.448E+00    0.695E+00
DAV:   4    -0.415908622751E+03    0.10491E+00   -0.17697E-01  4496   0.259E+00    0.190E+00
DAV:   5    -0.415901355291E+03    0.72675E-02   -0.41011E-02  5792   0.118E+00    0.114E+00
DAV:   6    -0.415910563381E+03   -0.92081E-02   -0.31864E-02  4496   0.110E+00    0.219E+00
DAV:   7    -0.415903455134E+03    0.71082E-02   -0.26556E-02  4368   0.107E+00    0.137E+00
DAV:   8    -0.415898568241E+03    0.48869E-02   -0.94369E-03  4288   0.692E-01    0.515E-01
DAV:   9    -0.415899590071E+03   -0.10218E-02   -0.52160E-03  4736   0.471E-01    0.765E-01
DAV:  10    -0.415900708591E+03   -0.11185E-02   -0.71949E-03  4720   0.555E-01    0.994E-01
DAV:  11    -0.415898870714E+03    0.18379E-02   -0.45928E-03  4352   0.484E-01    0.710E-01
DAV:  12    -0.415898679832E+03    0.19088E-03   -0.16064E-03  4608   0.276E-01    0.633E-01
DAV:  13    -0.415898532483E+03    0.14735E-03   -0.16320E-03  4480   0.287E-01    0.452E-01
DAV:  14    -0.415897908229E+03    0.62425E-03   -0.10316E-03  4336   0.244E-01    0.131E-01
DAV:  15    -0.415897956984E+03   -0.48755E-04   -0.32407E-04  5264   0.116E-01    0.151E-01
DAV:  16    -0.415897989925E+03   -0.32941E-04   -0.30524E-04  4512   0.111E-01    0.193E-01
DAV:  17    -0.415897893035E+03    0.96890E-04   -0.17635E-04  4336   0.889E-02    0.728E-02
DAV:  18    -0.415897898577E+03   -0.55420E-05   -0.35046E-05  4592   0.370E-02    0.579E-02
DAV:  19    -0.415897906798E+03   -0.82206E-05   -0.34597E-05  4400   0.398E-02    0.700E-02
DAV:  20    -0.415897894586E+03    0.12211E-04   -0.29265E-05  4336   0.374E-02    0.302E-02
DAV:  21    -0.415897895400E+03   -0.81331E-06   -0.97676E-06  2768   0.206E-02
  15 F= -.41589789E+03 E0= -.41575399E+03  d E =-.100410E-01
       N       E                     dE             d eps       ncg     rms          rms(c)
DAV:   1    -0.415898015935E+03   -0.12135E-03   -0.12580E+00  3840   0.167E+00    0.214E-01
DAV:   2    -0.415956693446E+03   -0.58678E-01   -0.78404E-02  4816   0.175E+00    0.518E+00
DAV:   3    -0.415912823620E+03    0.43870E-01   -0.10710E-01  4784   0.175E+00    0.241E+00
DAV:   4    -0.415899941246E+03    0.12882E-01   -0.19514E-02  4512   0.907E-01    0.630E-01
DAV:   5    -0.415899418586E+03    0.52266E-03   -0.53505E-03  5888   0.442E-01    0.460E-01
DAV:   6    -0.415901109540E+03   -0.16910E-02   -0.51943E-03  4544   0.448E-01    0.935E-01
DAV:   7    -0.415899538805E+03    0.15707E-02   -0.43299E-03  4416   0.427E-01    0.491E-01
DAV:   8    -0.415898922595E+03    0.61621E-03   -0.11762E-03  4400   0.246E-01    0.169E-01
DAV:   9    -0.415899097818E+03   -0.17522E-03   -0.69456E-04  4768   0.173E-01    0.283E-01
DAV:  10    -0.415899297058E+03   -0.19924E-03   -0.94707E-04  4592   0.212E-01    0.381E-01
DAV:  11    -0.415898971054E+03    0.32600E-03   -0.67314E-04  4368   0.189E-01    0.230E-01
DAV:  12    -0.415898949312E+03    0.21742E-04   -0.21551E-04  4816   0.979E-02    0.192E-01
DAV:  13    -0.415898950212E+03   -0.89976E-06   -0.18091E-04  4608   0.963E-02    0.145E-01
DAV:  14    -0.415898879198E+03    0.71014E-04   -0.10701E-04  4336   0.819E-02    0.479E-02
DAV:  15    -0.415898883710E+03   -0.45125E-05   -0.25080E-05  4736   0.305E-02    0.367E-02
DAV:  16    -0.415898887766E+03   -0.40562E-05   -0.21562E-05  4176   0.292E-02    0.501E-02
DAV:  17    -0.415898881745E+03    0.60216E-05   -0.13818E-05  3776   0.253E-02    0.215E-02
DAV:  18    -0.415898881975E+03   -0.22986E-06   -0.25054E-06  2096   0.111E-02
  16 F= -.41589887E+03 E0= -.41575491E+03  d E =-.110274E-01
       N       E                     dE             d eps       ncg     rms          rms(c)
DAV:   1    -0.415899143407E+03   -0.26166E-03   -0.61480E+00  3840   0.370E+00    0.446E-01
DAV:   2    -0.416116849065E+03   -0.21771E+00   -0.32666E-01  5264   0.348E+00    0.949E+00
DAV:   3    -0.415963773700E+03    0.15308E+00   -0.40514E-01  4656   0.349E+00    0.519E+00
DAV:   4    -0.415907484591E+03    0.56289E-01   -0.92895E-02  4784   0.182E+00    0.117E+00
DAV:   5    -0.415906175236E+03    0.13094E-02   -0.20697E-02  5376   0.893E-01    0.988E-01
DAV:   6    -0.415913054181E+03   -0.68789E-02   -0.19220E-02  4320   0.918E-01    0.194E+00
DAV:   7    -0.415906094621E+03    0.69596E-02   -0.17534E-02  4384   0.839E-01    0.956E-01
DAV:   8    -0.415904108183E+03    0.19864E-02   -0.56863E-03  4368   0.503E-01    0.507E-01
DAV:   9    -0.415905798866E+03   -0.16907E-02   -0.49099E-03  4608   0.469E-01    0.889E-01
DAV:  10    -0.415905347271E+03    0.45159E-03   -0.62104E-03  4576   0.517E-01    0.806E-01
DAV:  11    -0.415904027061E+03    0.13202E-02   -0.30223E-03  4288   0.400E-01    0.518E-01
DAV:  12    -0.415904308040E+03   -0.28098E-03   -0.15273E-03  4832   0.267E-01    0.542E-01
DAV:  13    -0.415903996395E+03    0.31165E-03   -0.18194E-03  4448   0.281E-01    0.396E-01
DAV:  14    -0.415903597199E+03    0.39920E-03   -0.89841E-04  4432   0.193E-01    0.140E-01
DAV:  15    -0.415903591258E+03    0.59411E-05   -0.23215E-04  5280   0.953E-02    0.115E-01
DAV:  16    -0.415903624370E+03   -0.33112E-04   -0.19203E-04  4464   0.885E-02    0.147E-01
DAV:  17    -0.415903564695E+03    0.59675E-04   -0.12489E-04  4368   0.746E-02    0.563E-02
DAV:  18    -0.415903564701E+03   -0.57480E-08   -0.21692E-05  4304   0.307E-02    0.455E-02
DAV:  19    -0.415903573346E+03   -0.86454E-05   -0.29467E-05  4288   0.343E-02    0.650E-02
DAV:  20    -0.415903564986E+03    0.83606E-05   -0.33051E-05  4256   0.337E-02    0.397E-02
DAV:  21    -0.415903563225E+03    0.17610E-05   -0.92955E-06  2496   0.201E-02    0.247E-02
DAV:  22    -0.415903566633E+03   -0.34081E-05   -0.67276E-06  2640   0.195E-02    0.356E-02
DAV:  23    -0.415903563140E+03    0.34930E-05   -0.62001E-06  2400   0.191E-02    0.151E-02
DAV:  24    -0.415903563452E+03   -0.31205E-06   -0.13939E-06  2160   0.786E-03
  17 F= -.41590356E+03 E0= -.41575959E+03  d E =-.468266E-02
       N       E                     dE             d eps       ncg     rms          rms(c)
DAV:   1    -0.415903565034E+03   -0.18947E-05   -0.10182E-02  3840   0.151E-01    0.237E-02
DAV:   2    -0.415904177704E+03   -0.61267E-03   -0.85294E-04  5296   0.184E-01    0.513E-01
DAV:   3    -0.415903759122E+03    0.41858E-03   -0.11515E-03  4592   0.191E-01    0.333E-01
DAV:   4    -0.415903567568E+03    0.19155E-03   -0.31547E-04  4896   0.105E-01    0.590E-02
DAV:   5    -0.415903575092E+03   -0.75240E-05   -0.52849E-05  5248   0.453E-02    0.538E-02
DAV:   6    -0.415903592320E+03   -0.17228E-04   -0.54368E-05  4512   0.463E-02    0.911E-02
DAV:   7    -0.415903577293E+03    0.15027E-04   -0.46001E-05  4448   0.437E-02    0.538E-02
DAV:   8    -0.415903571665E+03    0.56275E-05   -0.15458E-05  3616   0.262E-02    0.218E-02
DAV:   9    -0.415903573701E+03   -0.20360E-05   -0.60089E-06  2528   0.167E-02    0.228E-02
DAV:  10    -0.415903575273E+03   -0.15714E-05   -0.72751E-06  2336   0.186E-02    0.315E-02
DAV:  11    -0.415903573575E+03    0.16974E-05   -0.57048E-06  2272   0.166E-02    0.223E-02
DAV:  12    -0.415903574407E+03   -0.83131E-06   -0.26147E-06  2096   0.105E-02
  18 F= -.41590357E+03 E0= -.41575959E+03  d E =-.469331E-02
       N       E                     dE             d eps       ncg     rms          rms(c)
DAV:   1    -0.415904125119E+03   -0.55154E-03   -0.22194E+00  3840   0.221E+00    0.337E-01
DAV:   2    -0.416044991634E+03   -0.14087E+00   -0.19835E-01  5200   0.279E+00    0.755E+00
DAV:   3    -0.415949317020E+03    0.95675E-01   -0.25757E-01  4672   0.283E+00    0.455E+00
DAV:   4    -0.415907453855E+03    0.41863E-01   -0.62665E-02  5104   0.147E+00    0.866E-01
DAV:   5    -0.415906622078E+03    0.83178E-03   -0.10249E-02  5344   0.646E-01    0.735E-01
DAV:   6    -0.415911151304E+03   -0.45292E-02   -0.11037E-02  4432   0.675E-01    0.155E+00
DAV:   7    -0.415906304378E+03    0.48469E-02   -0.93902E-03  4512   0.618E-01    0.583E-01
DAV:   8    -0.415905644492E+03    0.65989E-03   -0.20323E-03  4240   0.313E-01    0.361E-01
DAV:   9    -0.415906329388E+03   -0.68490E-03   -0.19860E-03  4400   0.300E-01    0.571E-01
DAV:  10    -0.415905920004E+03    0.40938E-03   -0.21774E-03  4496   0.311E-01    0.424E-01
DAV:  11    -0.415905564412E+03    0.35559E-03   -0.85792E-04  4384   0.220E-01    0.290E-01
DAV:  12    -0.415905714824E+03   -0.15041E-03   -0.59154E-04  4816   0.163E-01    0.334E-01
DAV:  13    -0.415905597177E+03    0.11765E-03   -0.78584E-04  4608   0.178E-01    0.240E-01
DAV:  14    -0.415905449667E+03    0.14751E-03   -0.35814E-04  4512   0.126E-01    0.987E-02
DAV:  15    -0.415905455121E+03   -0.54537E-05   -0.11625E-04  5536   0.645E-02    0.974E-02
DAV:  16    -0.415905464698E+03   -0.95772E-05   -0.86629E-05  4448   0.617E-02    0.101E-01
DAV:  17    -0.415905436234E+03    0.28465E-04   -0.40804E-05  4224   0.502E-02    0.421E-02
DAV:  18    -0.415905437801E+03   -0.15675E-05   -0.81536E-06  3344   0.195E-02    0.365E-02
DAV:  19    -0.415905441554E+03   -0.37529E-05   -0.14472E-05  2928   0.226E-02    0.465E-02
DAV:  20    -0.415905436741E+03    0.48132E-05   -0.13684E-05  2560   0.219E-02    0.203E-02
DAV:  21    -0.415905436817E+03   -0.76427E-07   -0.25605E-06  2096   0.114E-02
  19 F= -.41590543E+03 E0= -.41576142E+03  d E =-.186367E-02
       N       E                     dE             d eps       ncg     rms          rms(c)
DAV:   1    -0.415905463894E+03   -0.27153E-04   -0.32761E-01  3840   0.849E-01    0.133E-01
DAV:   2    -0.415930414317E+03   -0.24950E-01   -0.32799E-02  5088   0.113E+00    0.331E+00
DAV:   3    -0.415912210598E+03    0.18204E-01   -0.44476E-02  4672   0.115E+00    0.176E+00
DAV:   4    -0.415905827434E+03    0.63832E-02   -0.88633E-03  5136   0.582E-01    0.336E-01
DAV:   5    -0.415905825337E+03    0.20971E-05   -0.15987E-03  5376   0.263E-01    0.302E-01
DAV:   6    -0.415906544990E+03   -0.71965E-03   -0.18047E-03  4400   0.274E-01    0.616E-01
DAV:   7    -0.415905763672E+03    0.78132E-03   -0.15366E-03  4448   0.247E-01    0.233E-01
DAV:   8    -0.415905671421E+03    0.92251E-04   -0.31681E-04  4272   0.123E-01    0.138E-01
DAV:   9    -0.415905777358E+03   -0.10594E-03   -0.28348E-04  4464   0.115E-01    0.211E-01
DAV:  10    -0.415905721991E+03    0.55368E-04   -0.29392E-04  4512   0.117E-01    0.162E-01
DAV:  11    -0.415905674101E+03    0.47890E-04   -0.12257E-04  4336   0.836E-02    0.113E-01
DAV:  12    -0.415905699278E+03   -0.25177E-04   -0.88077E-05  4736   0.627E-02    0.127E-01
DAV:  13    -0.415905679220E+03    0.20058E-04   -0.10701E-04  4592   0.663E-02    0.839E-02
DAV:  14    -0.415905660729E+03    0.18490E-04   -0.44198E-05  4416   0.453E-02    0.288E-02
DAV:  15    -0.415905663478E+03   -0.27487E-05   -0.11750E-05  3104   0.212E-02    0.351E-02
DAV:  16    -0.415905664965E+03   -0.14865E-05   -0.11887E-05  3248   0.216E-02    0.378E-02
DAV:  17    -0.415905661655E+03    0.33093E-05   -0.63877E-06  2256   0.185E-02    0.188E-02
DAV:  18    -0.415905661653E+03    0.17899E-08   -0.13688E-06  2096   0.822E-03
  20 F= -.41590566E+03 E0= -.41576163E+03  d E =-.208869E-02
       N       E                     dE             d eps       ncg     rms          rms(c)
DAV:   1    -0.415905767741E+03   -0.10609E-03   -0.10092E+00  3840   0.150E+00    0.247E-01
DAV:   2    -0.416054897998E+03   -0.14913E+00   -0.18855E-01  5040   0.257E+00    0.833E+00
DAV:   3    -0.415926535908E+03    0.12836E+00   -0.23218E-01  4640   0.253E+00    0.282E+00
DAV:   4    -0.415906632670E+03    0.19903E-01   -0.25677E-02  5216   0.102E+00    0.417E-01
DAV:   5    -0.415908939268E+03   -0.23066E-02   -0.76101E-03  5728   0.595E-01    0.942E-01
DAV:   6    -0.415907668751E+03    0.12705E-02   -0.66584E-03  4400   0.552E-01    0.763E-01
DAV:   7    -0.415906579621E+03    0.10891E-02   -0.29055E-03  4304   0.339E-01    0.311E-01
DAV:   8    -0.415906513130E+03    0.66491E-04   -0.78369E-04  4672   0.173E-01    0.250E-01
DAV:   9    -0.415906738867E+03   -0.22574E-03   -0.86246E-04  4432   0.194E-01    0.353E-01
DAV:  10    -0.415906497361E+03    0.24151E-03   -0.72028E-04  4432   0.185E-01    0.226E-01
DAV:  11    -0.415906453007E+03    0.44354E-04   -0.29518E-04  4304   0.118E-01    0.189E-01
DAV:  12    -0.415906559250E+03   -0.10624E-03   -0.35701E-04  4432   0.127E-01    0.240E-01
DAV:  13    -0.415906407296E+03    0.15195E-03   -0.33465E-04  4432   0.122E-01    0.934E-02
DAV:  14    -0.415906404757E+03    0.25385E-05   -0.10604E-04  4720   0.633E-02    0.649E-02
DAV:  15    -0.415906418178E+03   -0.13420E-04   -0.74446E-05  4816   0.523E-02    0.877E-02
DAV:  16    -0.415906403164E+03    0.15013E-04   -0.44751E-05  4432   0.453E-02    0.538E-02
DAV:  17    -0.415906398515E+03    0.46497E-05   -0.13027E-05  3904   0.256E-02    0.337E-02
DAV:  18    -0.415906400242E+03   -0.17278E-05   -0.50426E-06  2432   0.156E-02    0.305E-02
DAV:  19    -0.415906398840E+03    0.14021E-05   -0.60559E-06  2160   0.163E-02    0.197E-02
DAV:  20    -0.415906398196E+03    0.64465E-06   -0.28228E-06  2048   0.103E-02
  21 F= -.41590639E+03 E0= -.41576245E+03  d E =-.736540E-03
       N       E                     dE             d eps       ncg     rms          rms(c)
DAV:   1    -0.415906404852E+03   -0.60121E-05   -0.13960E-02  3840   0.176E-01    0.383E-02
DAV:   2    -0.415910895094E+03   -0.44902E-02   -0.55027E-03  4880   0.424E-01    0.152E+00
DAV:   3    -0.415906787882E+03    0.41072E-02   -0.62939E-03  4592   0.425E-01    0.384E-01
DAV:   4    -0.415906404943E+03    0.38294E-03   -0.46364E-04  4816   0.150E-01    0.768E-02
DAV:   5    -0.415906485990E+03   -0.81046E-04   -0.20340E-04  5632   0.101E-01    0.160E-01
DAV:   6    -0.415906427599E+03    0.58390E-04   -0.16581E-04  4544   0.918E-02    0.108E-01
DAV:   7    -0.415906414594E+03    0.13006E-04   -0.62714E-05  4480   0.513E-02    0.456E-02
DAV:   8    -0.415906413747E+03    0.84643E-06   -0.14243E-05  4032   0.228E-02    0.285E-02
DAV:   9    -0.415906417487E+03   -0.37395E-05   -0.11128E-05  3104   0.214E-02    0.413E-02
DAV:  10    -0.415906415931E+03    0.15552E-05   -0.11460E-05  2560   0.220E-02    0.303E-02
DAV:  11    -0.415906414246E+03    0.16852E-05   -0.51155E-06  2144   0.158E-02    0.201E-02
DAV:  12    -0.415906416895E+03   -0.26491E-05   -0.45281E-06  2176   0.142E-02    0.306E-02
DAV:  13    -0.415906415516E+03    0.13796E-05   -0.56080E-06  2192   0.150E-02    0.179E-02
DAV:  14    -0.415906415091E+03    0.42493E-06   -0.22844E-06  2064   0.969E-03
  22 F= -.41590641E+03 E0= -.41576248E+03  d E =-.753016E-03
       N       E                     dE             d eps       ncg     rms          rms(c)
DAV:   1    -0.415906445622E+03   -0.30106E-04   -0.82132E-01  3840   0.135E+00    0.251E-01
DAV:   2    -0.416097988534E+03   -0.19154E+00   -0.23361E-01  4928   0.282E+00    0.961E+00
DAV:   3    -0.415925252344E+03    0.17274E+00   -0.28869E-01  4656   0.274E+00    0.255E+00
DAV:   4    -0.415907116917E+03    0.18135E-01   -0.22685E-02  5328   0.979E-01    0.423E-01
DAV:   5    -0.415910496020E+03   -0.33791E-02   -0.84934E-03  5312   0.660E-01    0.109E+00
DAV:   6    -0.415908119509E+03    0.23765E-02   -0.77820E-03  4416   0.620E-01    0.740E-01
DAV:   7    -0.415907091833E+03    0.10277E-02   -0.27437E-03  4272   0.336E-01    0.324E-01
DAV:   8    -0.415906964912E+03    0.12692E-03   -0.73856E-04  4592   0.168E-01    0.219E-01
DAV:   9    -0.415907157653E+03   -0.19274E-03   -0.70090E-04  4320   0.172E-01    0.327E-01
DAV:  10    -0.415906980354E+03    0.17730E-03   -0.62257E-04  4448   0.168E-01    0.211E-01
DAV:  11    -0.415906926461E+03    0.53893E-04   -0.23214E-04  4336   0.107E-01    0.174E-01
DAV:  12    -0.415907027438E+03   -0.10098E-03   -0.27504E-04  4560   0.112E-01    0.230E-01
DAV:  13    -0.415906908700E+03    0.11874E-03   -0.31115E-04  4432   0.115E-01    0.106E-01
DAV:  14    -0.415906892639E+03    0.16061E-04   -0.10567E-04  4592   0.642E-02    0.595E-02
DAV:  15    -0.415906914244E+03   -0.21604E-04   -0.87899E-05  4928   0.567E-02    0.986E-02
DAV:  16    -0.415906893772E+03    0.20471E-04   -0.62336E-05  4496   0.499E-02    0.572E-02
DAV:  17    -0.415906889678E+03    0.40944E-05   -0.13360E-05  3824   0.258E-02    0.343E-02
DAV:  18    -0.415906891043E+03   -0.13653E-05   -0.54342E-06  2480   0.162E-02    0.322E-02
DAV:  19    -0.415906888983E+03    0.20600E-05   -0.56280E-06  2144   0.157E-02    0.138E-02
DAV:  20    -0.415906888820E+03    0.16298E-06   -0.16822E-06  2048   0.883E-03
  23 F= -.41590688E+03 E0= -.41576307E+03  d E =-.473968E-03
       N       E                     dE             d eps       ncg     rms          rms(c)
DAV:   1    -0.415906897863E+03   -0.88796E-05   -0.14439E-02  3840   0.179E-01    0.407E-02
DAV:   2    -0.415912210916E+03   -0.53131E-02   -0.66363E-03  4960   0.460E-01    0.165E+00
DAV:   3    -0.415907329262E+03    0.48817E-02   -0.74269E-03  4576   0.459E-01    0.408E-01
DAV:   4    -0.415906893861E+03    0.43540E-03   -0.54291E-04  4768   0.158E-01    0.739E-02
DAV:   5    -0.415907002798E+03   -0.10894E-03   -0.22775E-04  5200   0.112E-01    0.178E-01
DAV:   6    -0.415906925022E+03    0.77777E-04   -0.20860E-04  4496   0.103E-01    0.119E-01
DAV:   7    -0.415906905543E+03    0.19479E-04   -0.75689E-05  4400   0.554E-02    0.458E-02
DAV:   8    -0.415906905421E+03    0.12205E-06   -0.16067E-05  4096   0.236E-02    0.292E-02
DAV:   9    -0.415906909727E+03   -0.43064E-05   -0.12444E-05  3248   0.222E-02    0.436E-02
DAV:  10    -0.415906907742E+03    0.19858E-05   -0.12726E-05  2608   0.224E-02    0.305E-02
DAV:  11    -0.415906906230E+03    0.15116E-05   -0.52081E-06  2112   0.154E-02    0.207E-02
DAV:  12    -0.415906908573E+03   -0.23434E-05   -0.39724E-06  2128   0.134E-02    0.294E-02
DAV:  13    -0.415906907829E+03    0.74388E-06   -0.47894E-06  2176   0.147E-02
  24 F= -.41590690E+03 E0= -.41576311E+03  d E =-.492546E-03
       N       E                     dE             d eps       ncg     rms          rms(c)
DAV:   1    -0.415906910254E+03   -0.16803E-05   -0.39082E-01  3840   0.927E-01    0.172E-01
DAV:   2    -0.415982639967E+03   -0.75730E-01   -0.94845E-02  4976   0.180E+00    0.602E+00
DAV:   3    -0.415916802267E+03    0.65838E-01   -0.11241E-01  4592   0.179E+00    0.195E+00
DAV:   4    -0.415907229872E+03    0.95724E-02   -0.11892E-02  5232   0.708E-01    0.326E-01
DAV:   5    -0.415908156886E+03   -0.92701E-03   -0.34424E-03  5824   0.409E-01    0.597E-01
DAV:   6    -0.415907576077E+03    0.58081E-03   -0.24888E-03  4368   0.366E-01    0.444E-01
DAV:   7    -0.415907207699E+03    0.36838E-03   -0.10974E-03  4208   0.222E-01    0.233E-01
DAV:   8    -0.415907164861E+03    0.42838E-04   -0.37225E-04  4256   0.114E-01    0.159E-01
DAV:   9    -0.415907249357E+03   -0.84496E-04   -0.34096E-04  4352   0.120E-01    0.212E-01
DAV:  10    -0.415907184983E+03    0.64374E-04   -0.30381E-04  4336   0.117E-01    0.160E-01
DAV:  11    -0.415907149947E+03    0.35035E-04   -0.12311E-04  4272   0.800E-02    0.123E-01
DAV:  12    -0.415907198051E+03   -0.48104E-04   -0.13176E-04  4608   0.767E-02    0.160E-01
DAV:  13    -0.415907150134E+03    0.47917E-04   -0.15553E-04  4608   0.802E-02    0.832E-02
DAV:  14    -0.415907137101E+03    0.13033E-04   -0.56832E-05  4576   0.498E-02    0.405E-02
DAV:  15    -0.415907141648E+03   -0.45472E-05   -0.27265E-05  4336   0.325E-02    0.506E-02
DAV:  16    -0.415907141860E+03   -0.21182E-06   -0.23472E-05  4032   0.311E-02    0.495E-02
DAV:  17    -0.415907136120E+03    0.57400E-05   -0.10068E-05  2640   0.227E-02    0.234E-02
DAV:  18    -0.415907137052E+03   -0.93260E-06   -0.17458E-06  2144   0.923E-03
  25 F= -.41590713E+03 E0= -.41576339E+03  d E =-.229606E-03
       N       E                     dE             d eps       ncg     rms          rms(c)
DAV:   1    -0.415907137471E+03   -0.13516E-05   -0.17956E-04  3920   0.224E-02    0.149E-02
DAV:   2    -0.415907328606E+03   -0.19113E-03   -0.27253E-04  4816   0.110E-01    0.275E-01
DAV:   3    -0.415907221471E+03    0.10714E-03   -0.41656E-04  4560   0.116E-01    0.226E-01
DAV:   4    -0.415907138191E+03    0.83279E-04   -0.13390E-04  4624   0.667E-02    0.390E-02
DAV:   5    -0.415907137312E+03    0.87927E-06   -0.15366E-05  3856   0.260E-02    0.229E-02
DAV:   6    -0.415907141249E+03   -0.39366E-05   -0.12383E-05  3280   0.227E-02    0.367E-02
DAV:   7    -0.415907137662E+03    0.35866E-05   -0.96572E-06  2528   0.202E-02    0.192E-02
DAV:   8    -0.415907137152E+03    0.51023E-06   -0.23827E-06  2064   0.102E-02
  26 F= -.41590713E+03 E0= -.41576340E+03  d E =-.229419E-03
       N       E                     dE             d eps       ncg     rms          rms(c)
DAV:   1    -0.415907145467E+03   -0.78053E-05   -0.12991E-01  3840   0.534E-01    0.100E-01
DAV:   2    -0.415926713834E+03   -0.19568E-01   -0.24581E-02  5024   0.945E-01    0.302E+00
DAV:   3    -0.415910835633E+03    0.15878E-01   -0.31516E-02  4624   0.959E-01    0.127E+00
DAV:   4    -0.415907220421E+03    0.36152E-02   -0.45821E-03  4944   0.433E-01    0.220E-01
DAV:   5    -0.415907366512E+03   -0.14609E-03   -0.99175E-04  6016   0.210E-01    0.264E-01
DAV:   6    -0.415907637509E+03   -0.27100E-03   -0.10554E-03  4640   0.210E-01    0.431E-01
DAV:   7    -0.415907260842E+03    0.37667E-03   -0.79986E-04  4464   0.176E-01    0.168E-01
DAV:   8    -0.415907210594E+03    0.50248E-04   -0.15339E-04  4352   0.842E-02    0.847E-02
DAV:   9    -0.415907262193E+03   -0.51599E-04   -0.12664E-04  4832   0.730E-02    0.132E-01
DAV:  10    -0.415907229424E+03    0.32769E-04   -0.11908E-04  4480   0.715E-02    0.860E-02
DAV:  11    -0.415907222086E+03    0.73388E-05   -0.43377E-05  4432   0.450E-02    0.700E-02
DAV:  12    -0.415907238212E+03   -0.16126E-04   -0.50256E-05  4480   0.435E-02    0.903E-02
DAV:  13    -0.415907224604E+03    0.13608E-04   -0.50117E-05  4480   0.444E-02    0.471E-02
DAV:  14    -0.415907218981E+03    0.56229E-05   -0.15949E-05  3904   0.286E-02    0.198E-02
DAV:  15    -0.415907221855E+03   -0.28746E-05   -0.57461E-06  2464   0.159E-02    0.273E-02
DAV:  16    -0.415907221813E+03    0.42026E-07   -0.52226E-06  2160   0.155E-02
  27 F= -.41590722E+03 E0= -.41576352E+03  d E =-.848055E-04
       N       E                     dE             d eps       ncg     rms          rms(c)
DAV:   1    -0.415907221398E+03    0.45744E-06   -0.57052E-04  3840   0.374E-02    0.116E-02
DAV:   2    -0.415907672627E+03   -0.45123E-03   -0.53772E-04  4816   0.132E-01    0.488E-01
DAV:   3    -0.415907247900E+03    0.42473E-03   -0.60839E-04  4624   0.132E-01    0.989E-02
DAV:   4    -0.415907222287E+03    0.25613E-04   -0.41156E-05  4464   0.451E-02    0.324E-02
DAV:   5    -0.415907227180E+03   -0.48934E-05   -0.16993E-05  4352   0.310E-02    0.461E-02
DAV:   6    -0.415907225887E+03    0.12929E-05   -0.19317E-05  4032   0.301E-02    0.448E-02
DAV:   7    -0.415907221931E+03    0.39561E-05   -0.11117E-05  2592   0.228E-02    0.186E-02
DAV:   8    -0.415907222373E+03   -0.44158E-06   -0.19151E-06  2064   0.843E-03
  28 F= -.41590722E+03 E0= -.41576352E+03  d E =-.851136E-04
       N       E                     dE             d eps       ncg     rms          rms(c)
DAV:   1    -0.415907226420E+03   -0.44891E-05   -0.40510E-02  3856   0.299E-01    0.536E-02
DAV:   2    -0.415913635253E+03   -0.64088E-02   -0.79222E-03  5056   0.524E-01    0.178E+00
DAV:   3    -0.415908124038E+03    0.55112E-02   -0.97215E-03  4576   0.531E-01    0.608E-01
DAV:   4    -0.415907249860E+03    0.87418E-03   -0.11310E-03  4912   0.224E-01    0.129E-01
DAV:   5    -0.415907303763E+03   -0.53903E-04   -0.33144E-04  6128   0.119E-01    0.157E-01
DAV:   6    -0.415907412998E+03   -0.10924E-03   -0.41153E-04  4496   0.125E-01    0.268E-01
DAV:   7    -0.415907257311E+03    0.15569E-03   -0.29529E-04  4480   0.108E-01    0.886E-02
DAV:   8    -0.415907247699E+03    0.96123E-05   -0.44320E-05  4384   0.457E-02    0.421E-02
DAV:   9    -0.415907260665E+03   -0.12966E-04   -0.31500E-05  4288   0.378E-02    0.628E-02
DAV:  10    -0.415907256721E+03    0.39440E-05   -0.30003E-05  4256   0.377E-02    0.508E-02
DAV:  11    -0.415907252773E+03    0.39479E-05   -0.14612E-05  3776   0.272E-02    0.376E-02
DAV:  12    -0.415907257595E+03   -0.48224E-05   -0.12746E-05  2912   0.232E-02    0.465E-02
DAV:  13    -0.415907255105E+03    0.24899E-05   -0.14162E-05  2768   0.244E-02    0.296E-02
DAV:  14    -0.415907252934E+03    0.21712E-05   -0.55544E-06  2176   0.169E-02    0.116E-02
DAV:  15    -0.415907253690E+03   -0.75654E-06   -0.14901E-06  2064   0.789E-03
  29 F= -.41590725E+03 E0= -.41576357E+03  d E =-.313273E-04
       N       E                     dE             d eps       ncg     rms          rms(c)
DAV:   1    -0.415907254437E+03   -0.15034E-05   -0.20351E-05  5600   0.110E-02    0.159E-02
DAV:   2    -0.415907605384E+03   -0.35095E-03   -0.45074E-04  4688   0.133E-01    0.406E-01
DAV:   3    -0.415907355147E+03    0.25024E-03   -0.65217E-04  4544   0.140E-01    0.228E-01
DAV:   4    -0.415907254468E+03    0.10068E-03   -0.14997E-04  4544   0.760E-02    0.416E-02
DAV:   5    -0.415907255664E+03   -0.11961E-05   -0.17929E-05  4416   0.304E-02    0.306E-02
DAV:   6    -0.415907260543E+03   -0.48787E-05   -0.18365E-05  4144   0.292E-02    0.475E-02
DAV:   7    -0.415907254128E+03    0.64152E-05   -0.13703E-05  3632   0.254E-02    0.247E-02
DAV:   8    -0.415907253834E+03    0.29324E-06   -0.28814E-06  2080   0.107E-02
  30 F= -.41590725E+03 E0= -.41576357E+03  d E =-.312675E-04
       N       E                     dE             d eps       ncg     rms          rms(c)
DAV:   1    -0.415907258445E+03   -0.43177E-05   -0.18894E-02  3872   0.205E-01    0.397E-02
DAV:   2    -0.415911884373E+03   -0.46259E-02   -0.56280E-03  4848   0.431E-01    0.154E+00
DAV:   3    -0.415907674484E+03    0.42099E-02   -0.64060E-03  4592   0.430E-01    0.398E-01
DAV:   4    -0.415907266107E+03    0.40838E-03   -0.52323E-04  4928   0.157E-01    0.931E-02
DAV:   5    -0.415907335581E+03   -0.69474E-04   -0.22551E-04  6304   0.101E-01    0.161E-01
DAV:   6    -0.415907356305E+03   -0.20724E-04   -0.27813E-04  4576   0.103E-01    0.199E-01
DAV:   7    -0.415907269601E+03    0.86703E-04   -0.15714E-04  4448   0.800E-02    0.586E-02
DAV:   8    -0.415907267159E+03    0.24420E-05   -0.21860E-05  4528   0.323E-02    0.253E-02
DAV:   9    -0.415907273968E+03   -0.68083E-05   -0.14023E-05  3872   0.260E-02    0.486E-02
DAV:  10    -0.415907271132E+03    0.28357E-05   -0.13509E-05  3632   0.258E-02    0.329E-02
DAV:  11    -0.415907269343E+03    0.17885E-05   -0.64187E-06  2368   0.188E-02    0.232E-02
DAV:  12    -0.415907272200E+03   -0.28567E-05   -0.63693E-06  2192   0.167E-02    0.327E-02
DAV:  13    -0.415907270958E+03    0.12423E-05   -0.81260E-06  2272   0.180E-02    0.244E-02
DAV:  14    -0.415907269853E+03    0.11051E-05   -0.37047E-06  2128   0.133E-02    0.100E-02
DAV:  15    -0.415907270215E+03   -0.36201E-06   -0.11627E-06  2032   0.669E-03
  31 F= -.41590726E+03 E0= -.41576360E+03  d E =-.164164E-04
       N       E                     dE             d eps       ncg     rms          rms(c)
DAV:   1    -0.415907270738E+03   -0.88500E-06   -0.28287E-05  3920   0.102E-02    0.110E-02
DAV:   2    -0.415907440538E+03   -0.16980E-03   -0.22172E-04  4752   0.925E-02    0.284E-01
DAV:   3    -0.415907314208E+03    0.12633E-03   -0.31197E-04  4592   0.965E-02    0.149E-01
DAV:   4    -0.415907269283E+03    0.44924E-04   -0.71008E-05  4560   0.527E-02    0.262E-02
DAV:   5    -0.415907271315E+03   -0.20319E-05   -0.99428E-06  2832   0.204E-02    0.247E-02
DAV:   6    -0.415907274331E+03   -0.30161E-05   -0.10330E-05  2688   0.212E-02    0.400E-02
DAV:   7    -0.415907270800E+03    0.35315E-05   -0.90663E-06  2352   0.191E-02    0.229E-02
DAV:   8    -0.415907270342E+03    0.45788E-06   -0.23400E-06  2080   0.101E-02
  32 F= -.41590726E+03 E0= -.41576360E+03  d E =-.164151E-04
