       N       E                     dE             d eps       ncg     rms          rms(c)
DAV:   1     0.559893788388E+04    0.55989E+04   -0.31505E+05  4096   0.152E+03
DAV:   2    -0.293578835390E+02   -0.56283E+04   -0.53995E+04  4096   0.353E+02
DAV:   3    -0.508491060669E+03   -0.47913E+03   -0.44738E+03  5120   0.143E+02
DAV:   4    -0.520279103610E+03   -0.11788E+02   -0.11685E+02  4480   0.232E+01
DAV:   5    -0.520544288523E+03   -0.26518E+00   -0.26513E+00  5312   0.249E+00    0.866E+01
DAV:   6    -0.574107232493E+03   -0.53563E+02   -0.12142E+03  4864   0.150E+02    0.122E+02
DAV:   7    -0.631701017657E+03   -0.57594E+02   -0.79260E+02  5056   0.187E+02    0.142E+02
DAV:   8    -0.824452978282E+03   -0.19275E+03   -0.88283E+02  5952   0.155E+02    0.220E+02
DAV:   9    -0.489660846296E+03    0.33479E+03   -0.66434E+02  6080   0.691E+01    0.936E+01
DAV:  10    -0.468267284081E+03    0.21394E+02   -0.37709E+02  4992   0.825E+01    0.772E+01
DAV:  11    -0.525161502908E+03   -0.56894E+02   -0.77746E+02  4672   0.101E+02    0.118E+02
DAV:  12    -0.493706619553E+03    0.31455E+02   -0.43197E+02  4608   0.641E+01    0.987E+01
DAV:  13    -0.481612752610E+03    0.12094E+02   -0.22442E+02  4544   0.554E+01    0.106E+02
DAV:  14    -0.457455933125E+03    0.24157E+02   -0.26009E+02  4672   0.451E+01    0.695E+01
DAV:  15    -0.459165043142E+03   -0.17091E+01   -0.20707E+02  4800   0.417E+01    0.835E+01
DAV:  16    -0.452648939504E+03    0.65161E+01   -0.24598E+02  4736   0.366E+01    0.637E+01
DAV:  17    -0.449237234558E+03    0.34117E+01   -0.94417E+01  4608   0.305E+01    0.587E+01
DAV:  18    -0.443782390053E+03    0.54548E+01   -0.76985E+01  4672   0.247E+01    0.439E+01
DAV:  19    -0.442230152629E+03    0.15522E+01   -0.50374E+01  5632   0.196E+01    0.363E+01
DAV:  20    -0.441372278478E+03    0.85787E+00   -0.31776E+01  4672   0.191E+01    0.357E+01
DAV:  21    -0.439723385192E+03    0.16489E+01   -0.20272E+01  5184   0.149E+01    0.284E+01
DAV:  22    -0.438164018013E+03    0.15594E+01   -0.13355E+01  4864   0.132E+01    0.166E+01
DAV:  23    -0.437939427584E+03    0.22459E+00   -0.61357E+00  5184   0.105E+01    0.169E+01
DAV:  24    -0.437617114930E+03    0.32231E+00   -0.36643E+00  4864   0.720E+00    0.160E+01
DAV:  25    -0.437358262541E+03    0.25885E+00   -0.13292E+00  4800   0.444E+00    0.120E+01
DAV:  26    -0.437212951222E+03    0.14531E+00   -0.11458E+00  4864   0.365E+00    0.956E+00
DAV:  27    -0.437199591642E+03    0.13360E-01   -0.11221E+00  4992   0.360E+00    0.104E+01
DAV:  28    -0.437308436256E+03   -0.10884E+00   -0.13575E+00  5184   0.410E+00    0.130E+01
DAV:  29    -0.437087930261E+03    0.22051E+00   -0.22745E+00  5056   0.453E+00    0.791E+00
DAV:  30    -0.436988634921E+03    0.99295E-01   -0.12109E+00  5120   0.445E+00    0.662E+00
DAV:  31    -0.437073473568E+03   -0.84839E-01   -0.15561E+00  5504   0.468E+00    0.897E+00
DAV:  32    -0.437055292323E+03    0.18181E-01   -0.17732E+00  5696   0.478E+00    0.845E+00
DAV:  33    -0.436956579068E+03    0.98713E-01   -0.11632E+00  4992   0.419E+00    0.671E+00
DAV:  34    -0.436885111272E+03    0.71468E-01   -0.37227E-01  6400   0.212E+00    0.443E+00
DAV:  35    -0.436865583067E+03    0.19528E-01   -0.15798E-01  5824   0.150E+00    0.391E+00
DAV:  36    -0.436863033456E+03    0.25496E-02   -0.15591E-01  5568   0.157E+00    0.379E+00
DAV:  37    -0.436852947235E+03    0.10086E-01   -0.18479E-01  4992   0.168E+00    0.321E+00
DAV:  38    -0.436840255833E+03    0.12691E-01   -0.10893E-01  5696   0.134E+00    0.219E+00
DAV:  39    -0.436836900418E+03    0.33554E-02   -0.54021E-02  5184   0.924E-01    0.230E+00
DAV:  40    -0.436825669866E+03    0.11231E-01   -0.29623E-02  4864   0.694E-01    0.134E+00
DAV:  41    -0.436827150982E+03   -0.14811E-02   -0.14544E-02  5248   0.530E-01    0.149E+00
DAV:  42    -0.436824394866E+03    0.27561E-02   -0.21349E-02  4928   0.603E-01    0.107E+00
DAV:  43    -0.436823408042E+03    0.98682E-03   -0.94368E-03  4864   0.459E-01    0.909E-01
DAV:  44    -0.436823610263E+03   -0.20222E-03   -0.10762E-02  5056   0.439E-01    0.891E-01
DAV:  45    -0.436821693965E+03    0.19163E-02   -0.76938E-03  4864   0.401E-01    0.435E-01
DAV:  46    -0.436822143851E+03   -0.44989E-03   -0.29109E-03  5888   0.229E-01    0.556E-01
DAV:  47    -0.436821751701E+03    0.39215E-03   -0.36216E-03  4992   0.221E-01    0.280E-01
DAV:  48    -0.436821729700E+03    0.22001E-04   -0.11219E-03  5056   0.155E-01    0.237E-01
DAV:  49    -0.436822106673E+03   -0.37697E-03   -0.15439E-03  5952   0.157E-01    0.238E-01
DAV:  50    -0.436822172446E+03   -0.65773E-04   -0.85819E-04  5056   0.126E-01    0.201E-01
DAV:  51    -0.436822546178E+03   -0.37373E-03   -0.95144E-04  4736   0.131E-01    0.201E-01
DAV:  52    -0.436822830705E+03   -0.28453E-03   -0.62938E-04  5184   0.114E-01    0.141E-01
DAV:  53    -0.436823191877E+03   -0.36117E-03   -0.39695E-04  5120   0.923E-02    0.168E-01
DAV:  54    -0.436823426878E+03   -0.23500E-03   -0.31840E-04  4736   0.816E-02    0.878E-02
DAV:  55    -0.436823582878E+03   -0.15600E-03   -0.14797E-04  4992   0.560E-02    0.105E-01
DAV:  56    -0.436823826057E+03   -0.24318E-03   -0.20975E-04  4800   0.622E-02    0.548E-02
DAV:  57    -0.436823903275E+03   -0.77218E-04   -0.69957E-05  5120   0.364E-02    0.490E-02
DAV:  58    -0.436824239225E+03   -0.33595E-03   -0.10128E-04  4864   0.401E-02    0.645E-02
DAV:  59    -0.436824341878E+03   -0.10265E-03   -0.70712E-05  4800   0.381E-02    0.457E-02
DAV:  60    -0.436824572197E+03   -0.23032E-03   -0.56009E-05  4480   0.313E-02
   1 F= -.43678494E+03 E0= -.43664170E+03  d E =-.436785E+03
       N       E                     dE             d eps       ncg     rms          rms(c)
DAV:   1    -0.437145077319E+03   -0.32074E+00   -0.72044E+01  4096   0.110E+01    0.175E+00
DAV:   2    -0.438207178757E+03   -0.10621E+01   -0.61323E+00  6144   0.706E+00    0.210E+01
DAV:   3    -0.437499183773E+03    0.70799E+00   -0.76047E+00  4928   0.730E+00    0.116E+01
DAV:   4    -0.437251399856E+03    0.24778E+00   -0.21618E+00  4992   0.420E+00    0.497E+00
DAV:   5    -0.437294010481E+03   -0.42611E-01   -0.11731E+00  5376   0.343E+00    0.646E+00
DAV:   6    -0.437259990622E+03    0.34020E-01   -0.10671E+00  5120   0.346E+00    0.516E+00
DAV:   7    -0.437252298255E+03    0.76924E-02   -0.76893E-01  5504   0.315E+00    0.494E+00
DAV:   8    -0.437228021202E+03    0.24277E-01   -0.63352E-01  5504   0.265E+00    0.416E+00
DAV:   9    -0.437192738189E+03    0.35283E-01   -0.34103E-01  5696   0.213E+00    0.210E+00
DAV:  10    -0.437200632148E+03   -0.78940E-02   -0.19165E-01  5120   0.173E+00    0.255E+00
DAV:  11    -0.437209053304E+03   -0.84212E-02   -0.22173E-01  5120   0.170E+00    0.322E+00
DAV:  12    -0.437187055869E+03    0.21997E-01   -0.15070E-01  4992   0.150E+00    0.193E+00
DAV:  13    -0.437186130122E+03    0.92575E-03   -0.40762E-02  5632   0.847E-01    0.171E+00
DAV:  14    -0.437184328916E+03    0.18012E-02   -0.47867E-02  4736   0.791E-01    0.137E+00
DAV:  15    -0.437179839009E+03    0.44899E-02   -0.29824E-02  4992   0.595E-01    0.495E-01
DAV:  16    -0.437179527207E+03    0.31180E-03   -0.69230E-03  4928   0.305E-01    0.330E-01
DAV:  17    -0.437179933814E+03   -0.40661E-03   -0.49162E-03  4672   0.272E-01    0.477E-01
DAV:  18    -0.437179406438E+03    0.52738E-03   -0.30405E-03  4864   0.231E-01    0.273E-01
DAV:  19    -0.437179440674E+03   -0.34235E-04   -0.83359E-04  4800   0.115E-01    0.258E-01
DAV:  20    -0.437179524437E+03   -0.83764E-04   -0.15187E-03  4608   0.134E-01    0.268E-01
DAV:  21    -0.437179366952E+03    0.15749E-03   -0.10665E-03  4800   0.115E-01    0.899E-02
DAV:  22    -0.437179377323E+03   -0.10371E-04   -0.17822E-04  4992   0.543E-02    0.892E-02
DAV:  23    -0.437179416665E+03   -0.39342E-04   -0.25203E-04  4800   0.602E-02    0.112E-01
DAV:  24    -0.437179400422E+03    0.16243E-04   -0.16463E-04  4736   0.528E-02    0.375E-02
DAV:  25    -0.437179404405E+03   -0.39836E-05   -0.26766E-05  4608   0.220E-02    0.290E-02
DAV:  26    -0.437179430734E+03   -0.26329E-04   -0.25217E-05  4352   0.219E-02    0.380E-02
DAV:  27    -0.437179439440E+03   -0.87059E-05   -0.21501E-05  3904   0.201E-02    0.126E-02
DAV:  28    -0.437179444556E+03   -0.51158E-05   -0.48865E-06  3072   0.958E-03    0.120E-02
DAV:  29    -0.437179464673E+03   -0.20117E-04   -0.57422E-06  3520   0.958E-03    0.158E-02
DAV:  30    -0.437179469846E+03   -0.51730E-05   -0.34979E-06  3072   0.826E-03    0.580E-03
DAV:  31    -0.437179475721E+03   -0.58752E-05   -0.10529E-06  3072   0.455E-03    0.764E-03
DAV:  32    -0.437179493288E+03   -0.17567E-04   -0.14790E-06  3456   0.453E-03    0.642E-03
DAV:  33    -0.437179496263E+03   -0.29752E-05   -0.38031E-07  2880   0.283E-03    0.555E-03
DAV:  34    -0.437179507644E+03   -0.11381E-04   -0.55245E-07  3200   0.295E-03    0.560E-03
DAV:  35    -0.437179515004E+03   -0.73596E-05   -0.48248E-07  3072   0.298E-03    0.206E-03
DAV:  36    -0.437179519429E+03   -0.44256E-05   -0.25296E-07  3072   0.211E-03    0.348E-03
DAV:  37    -0.437179530803E+03   -0.11374E-04   -0.46769E-07  3200   0.227E-03    0.270E-03
DAV:  38    -0.437179532657E+03   -0.18537E-05   -0.14706E-07  2816   0.165E-03    0.157E-03
DAV:  39    -0.437179536371E+03   -0.37146E-05   -0.14098E-07  3008   0.139E-03    0.250E-03
DAV:  40    -0.437179538428E+03   -0.20562E-05   -0.13770E-07  3072   0.149E-03    0.980E-04
DAV:  41    -0.437179538901E+03   -0.47356E-06   -0.41019E-08  2752   0.800E-04
   2 F= -.43713888E+03 E0= -.43699644E+03  d E =-.353939E+00
       N       E                     dE             d eps       ncg     rms          rms(c)
DAV:   1    -0.437240961239E+03   -0.61423E-01   -0.56181E+01  4096   0.968E+00    0.153E+00
DAV:   2    -0.438140627839E+03   -0.89967E+00   -0.51606E+00  6080   0.643E+00    0.195E+01
DAV:   3    -0.437513221427E+03    0.62741E+00   -0.64270E+00  4992   0.669E+00    0.100E+01
DAV:   4    -0.437331112608E+03    0.18211E+00   -0.16883E+00  4864   0.378E+00    0.452E+00
DAV:   5    -0.437365640934E+03   -0.34528E-01   -0.94541E-01  5312   0.307E+00    0.595E+00
DAV:   6    -0.437322856877E+03    0.42784E-01   -0.81455E-01  5312   0.301E+00    0.425E+00
DAV:   7    -0.437320653052E+03    0.22038E-02   -0.51072E-01  5696   0.264E+00    0.408E+00
DAV:   8    -0.437314372753E+03    0.62803E-02   -0.46431E-01  4992   0.236E+00    0.393E+00
DAV:   9    -0.437278730506E+03    0.35642E-01   -0.26972E-01  5632   0.192E+00    0.171E+00
DAV:  10    -0.437280950429E+03   -0.22199E-02   -0.12006E-01  5248   0.136E+00    0.187E+00
DAV:  11    -0.437294661648E+03   -0.13711E-01   -0.16426E-01  5248   0.146E+00    0.291E+00
DAV:  12    -0.437275688458E+03    0.18973E-01   -0.12480E-01  5120   0.134E+00    0.161E+00
DAV:  13    -0.437273950202E+03    0.17383E-02   -0.25650E-02  5376   0.673E-01    0.133E+00
DAV:  14    -0.437274519617E+03   -0.56942E-03   -0.33566E-02  4864   0.656E-01    0.128E+00
DAV:  15    -0.437270607979E+03    0.39116E-02   -0.26749E-02  4928   0.552E-01    0.471E-01
DAV:  16    -0.437270189992E+03    0.41799E-03   -0.55051E-03  4992   0.271E-01    0.251E-01
DAV:  17    -0.437270525596E+03   -0.33560E-03   -0.31115E-03  4864   0.228E-01    0.404E-01
DAV:  18    -0.437270143507E+03    0.38209E-03   -0.21542E-03  4800   0.196E-01    0.233E-01
DAV:  19    -0.437270132874E+03    0.10633E-04   -0.54986E-04  4608   0.961E-02    0.200E-01
DAV:  20    -0.437270204607E+03   -0.71733E-04   -0.10302E-03  4800   0.110E-01    0.231E-01
DAV:  21    -0.437270079216E+03    0.12539E-03   -0.79013E-04  4736   0.967E-02    0.796E-02
DAV:  22    -0.437270078736E+03    0.48001E-06   -0.10480E-04  4864   0.434E-02    0.663E-02
DAV:  23    -0.437270097979E+03   -0.19243E-04   -0.13364E-04  4800   0.457E-02    0.875E-02
DAV:  24    -0.437270081734E+03    0.16245E-04   -0.10651E-04  4800   0.412E-02    0.320E-02
DAV:  25    -0.437270082363E+03   -0.62949E-06   -0.18288E-05  3264   0.180E-02    0.218E-02
DAV:  26    -0.437270090278E+03   -0.79149E-05   -0.18406E-05  3584   0.184E-02    0.332E-02
DAV:  27    -0.437270091678E+03   -0.14004E-05   -0.16702E-05  3584   0.172E-02    0.125E-02
DAV:  28    -0.437270093066E+03   -0.13875E-05   -0.33061E-06  2880   0.790E-03    0.924E-03
DAV:  29    -0.437270098677E+03   -0.56114E-05   -0.39725E-06  3264   0.818E-03    0.143E-02
DAV:  30    -0.437270100739E+03   -0.20617E-05   -0.29008E-06  3072   0.757E-03    0.521E-03
DAV:  31    -0.437270102090E+03   -0.13509E-05   -0.74598E-07  2880   0.381E-03    0.557E-03
DAV:  32    -0.437270107933E+03   -0.58429E-05   -0.11504E-06  3456   0.374E-03    0.549E-03
DAV:  33    -0.437270109113E+03   -0.11804E-05   -0.39742E-07  2944   0.290E-03    0.445E-03
DAV:  34    -0.437270111886E+03   -0.27726E-05   -0.36504E-07  3008   0.256E-03    0.493E-03
DAV:  35    -0.437270115351E+03   -0.34654E-05   -0.43131E-07  3200   0.248E-03    0.193E-03
DAV:  36    -0.437270116445E+03   -0.10936E-05   -0.15441E-07  2944   0.158E-03    0.229E-03
DAV:  37    -0.437270120522E+03   -0.40773E-05   -0.36779E-07  3136   0.169E-03    0.238E-03
DAV:  38    -0.437270121221E+03   -0.69944E-06   -0.13139E-07  2944   0.145E-03
   3 F= -.43723179E+03 E0= -.43709016E+03  d E =-.446849E+00
       N       E                     dE             d eps       ncg     rms          rms(c)
DAV:   1    -0.437402012767E+03   -0.13189E+00   -0.74946E+00  4096   0.369E+00    0.484E-01
DAV:   2    -0.437522208282E+03   -0.12020E+00   -0.68920E-01  5888   0.219E+00    0.766E+00
DAV:   3    -0.437422284276E+03    0.99924E-01   -0.85287E-01  4992   0.224E+00    0.248E+00
DAV:   4    -0.437409894885E+03    0.12389E-01   -0.10243E-01  4736   0.102E+00    0.114E+00
DAV:   5    -0.437419772795E+03   -0.98779E-02   -0.94713E-02  5056   0.104E+00    0.223E+00
DAV:   6    -0.437414123902E+03    0.56489E-02   -0.10565E-01  5056   0.106E+00    0.159E+00
DAV:   7    -0.437409209447E+03    0.49145E-02   -0.47959E-02  4992   0.808E-01    0.869E-01
DAV:   8    -0.437410697625E+03   -0.14882E-02   -0.32041E-02  5056   0.677E-01    0.112E+00
DAV:   9    -0.437408742866E+03    0.19548E-02   -0.27395E-02  4800   0.608E-01    0.731E-01
DAV:  10    -0.437408362164E+03    0.38070E-03   -0.15344E-02  5568   0.492E-01    0.600E-01
DAV:  11    -0.437409239931E+03   -0.87777E-03   -0.15638E-02  5184   0.443E-01    0.878E-01
DAV:  12    -0.437407425345E+03    0.18146E-02   -0.11882E-02  5376   0.383E-01    0.380E-01
DAV:  13    -0.437407340986E+03    0.84359E-04   -0.24460E-03  6144   0.202E-01    0.294E-01
DAV:  14    -0.437407524317E+03   -0.18333E-03   -0.23635E-03  5056   0.189E-01    0.366E-01
DAV:  15    -0.437407189352E+03    0.33497E-03   -0.19323E-03  4544   0.160E-01    0.141E-01
DAV:  16    -0.437407149929E+03    0.39423E-04   -0.38578E-04  4608   0.757E-02    0.577E-02
DAV:  17    -0.437407189929E+03   -0.40000E-04   -0.26380E-04  4864   0.664E-02    0.116E-01
DAV:  18    -0.437407161467E+03    0.28461E-04   -0.21357E-04  4800   0.589E-02    0.639E-02
DAV:  19    -0.437407159710E+03    0.17574E-05   -0.51756E-05  4736   0.271E-02    0.491E-02
DAV:  20    -0.437407164048E+03   -0.43378E-05   -0.44472E-05  4608   0.235E-02    0.494E-02
DAV:  21    -0.437407167858E+03   -0.38100E-05   -0.53785E-05  3840   0.236E-02    0.295E-02
DAV:  22    -0.437407168904E+03   -0.10464E-05   -0.10201E-05  3072   0.149E-02    0.260E-02
DAV:  23    -0.437407174299E+03   -0.53951E-05   -0.83718E-06  3136   0.125E-02    0.274E-02
DAV:  24    -0.437407178435E+03   -0.41358E-05   -0.96849E-06  3328   0.121E-02    0.127E-02
DAV:  25    -0.437407179615E+03   -0.11796E-05   -0.27385E-06  2816   0.683E-03    0.694E-03
DAV:  26    -0.437407183670E+03   -0.40552E-05   -0.24047E-06  3008   0.648E-03    0.113E-02
DAV:  27    -0.437407187497E+03   -0.38271E-05   -0.22048E-06  3200   0.600E-03    0.561E-03
DAV:  28    -0.437407188592E+03   -0.10952E-05   -0.63195E-07  2688   0.337E-03    0.368E-03
DAV:  29    -0.437407194012E+03   -0.54200E-05   -0.85809E-07  3136   0.378E-03    0.693E-03
DAV:  30    -0.437407199846E+03   -0.58341E-05   -0.10182E-06  3392   0.405E-03    0.361E-03
DAV:  31    -0.437407201600E+03   -0.17532E-05   -0.33222E-07  2944   0.246E-03    0.381E-03
DAV:  32    -0.437407207244E+03   -0.56440E-05   -0.60270E-07  3264   0.263E-03    0.403E-03
DAV:  33    -0.437407208939E+03   -0.16953E-05   -0.29518E-07  3072   0.231E-03    0.148E-03
DAV:  34    -0.437407210310E+03   -0.13710E-05   -0.14729E-07  2816   0.154E-03    0.254E-03
DAV:  35    -0.437407213340E+03   -0.30305E-05   -0.24469E-07  3200   0.157E-03    0.138E-03
DAV:  36    -0.437407213752E+03   -0.41186E-06   -0.62840E-08  2816   0.100E-03
   4 F= -.43737204E+03 E0= -.43723073E+03  d E =-.140248E+00
       N       E                     dE             d eps       ncg     rms          rms(c)
DAV:   1    -0.437685363443E+03   -0.27815E+00   -0.38214E+01  4096   0.835E+00    0.114E+00
DAV:   2    -0.438470476984E+03   -0.78511E+00   -0.44300E+00  6080   0.584E+00    0.186E+01
DAV:   3    -0.437835872052E+03    0.63460E+00   -0.50054E+00  4992   0.580E+00    0.706E+00
DAV:   4    -0.437738840173E+03    0.97032E-01   -0.80575E-01  4864   0.278E+00    0.298E+00
DAV:   5    -0.437779707845E+03   -0.40868E-01   -0.52237E-01  6080   0.239E+00    0.489E+00
DAV:   6    -0.437759226230E+03    0.20482E-01   -0.55449E-01  5248   0.245E+00    0.394E+00
DAV:   7    -0.437726484814E+03    0.32741E-01   -0.24037E-01  4992   0.186E+00    0.191E+00
DAV:   8    -0.437736278162E+03   -0.97933E-02   -0.15332E-01  5696   0.150E+00    0.262E+00
DAV:   9    -0.437727483676E+03    0.87945E-02   -0.15180E-01  4992   0.140E+00    0.189E+00
DAV:  10    -0.437720697188E+03    0.67865E-02   -0.80520E-02  5504   0.111E+00    0.115E+00
DAV:  11    -0.437727983164E+03   -0.72860E-02   -0.80324E-02  5120   0.101E+00    0.202E+00
DAV:  12    -0.437719967485E+03    0.80157E-02   -0.67840E-02  5184   0.943E-01    0.114E+00
DAV:  13    -0.437717807128E+03    0.21604E-02   -0.17115E-02  5952   0.554E-01    0.724E-01
DAV:  14    -0.437719311477E+03   -0.15043E-02   -0.16157E-02  4928   0.479E-01    0.100E+00
DAV:  15    -0.437717066903E+03    0.22446E-02   -0.15513E-02  4736   0.427E-01    0.415E-01
DAV:  16    -0.437716648762E+03    0.41814E-03   -0.32201E-03  5760   0.213E-01    0.153E-01
DAV:  17    -0.437716805057E+03   -0.15629E-03   -0.14660E-03  4992   0.161E-01    0.255E-01
DAV:  18    -0.437716701418E+03    0.10364E-03   -0.13131E-03  4864   0.139E-01    0.190E-01
DAV:  19    -0.437716641925E+03    0.59493E-04   -0.49668E-04  5120   0.822E-02    0.113E-01
DAV:  20    -0.437716647919E+03   -0.59941E-05   -0.19729E-04  5376   0.527E-02    0.102E-01
DAV:  21    -0.437716668218E+03   -0.20299E-04   -0.24341E-04  4608   0.542E-02    0.734E-02
DAV:  22    -0.437716664185E+03    0.40330E-05   -0.77411E-05  4608   0.411E-02    0.510E-02
DAV:  23    -0.437716679200E+03   -0.15015E-04   -0.41525E-05  5056   0.280E-02    0.576E-02
DAV:  24    -0.437716701095E+03   -0.21895E-04   -0.57570E-05  4544   0.293E-02    0.386E-02
DAV:  25    -0.437716704024E+03   -0.29298E-05   -0.23466E-05  4160   0.201E-02    0.155E-02
DAV:  26    -0.437716714396E+03   -0.10372E-04   -0.12130E-05  3264   0.145E-02    0.250E-02
DAV:  27    -0.437716734034E+03   -0.19637E-04   -0.11118E-05  3904   0.132E-02    0.155E-02
DAV:  28    -0.437716738123E+03   -0.40888E-05   -0.38295E-06  3072   0.852E-03    0.951E-03
DAV:  29    -0.437716748507E+03   -0.10384E-04   -0.30829E-06  3264   0.743E-03    0.140E-02
DAV:  30    -0.437716769079E+03   -0.20572E-04   -0.41562E-06  3968   0.745E-03    0.776E-03
DAV:  31    -0.437716773805E+03   -0.47263E-05   -0.15047E-06  3136   0.538E-03    0.620E-03
DAV:  32    -0.437716793140E+03   -0.19334E-04   -0.30674E-06  3648   0.628E-03    0.103E-02
DAV:  33    -0.437716802479E+03   -0.93393E-05   -0.22699E-06  3456   0.636E-03    0.561E-03
DAV:  34    -0.437716804755E+03   -0.22764E-05   -0.64317E-07  2944   0.321E-03    0.574E-03
DAV:  35    -0.437716812423E+03   -0.76682E-05   -0.98439E-07  3328   0.308E-03    0.414E-03
DAV:  36    -0.437716814147E+03   -0.17238E-05   -0.40071E-07  3072   0.268E-03    0.183E-03
DAV:  37    -0.437716817459E+03   -0.33115E-05   -0.30664E-07  3008   0.207E-03    0.341E-03
DAV:  38    -0.437716820094E+03   -0.26349E-05   -0.27786E-07  2944   0.206E-03    0.180E-03
DAV:  39    -0.437716820648E+03   -0.55440E-06   -0.86472E-08  2816   0.110E-03
   5 F= -.43768777E+03 E0= -.43754721E+03  d E =-.455987E+00
       N       E                     dE             d eps       ncg     rms          rms(c)
DAV:   1    -0.438136633059E+03   -0.41981E+00   -0.15490E+02  4096   0.170E+01    0.254E+00
DAV:   2    -0.441813237021E+03   -0.36766E+01   -0.20536E+01  6144   0.143E+01    0.342E+01
DAV:   3    -0.439194538353E+03    0.26187E+01   -0.18351E+01  6208   0.134E+01    0.189E+01
DAV:   4    -0.438483324970E+03    0.71121E+00   -0.61163E+00  4992   0.748E+00    0.817E+00
DAV:   5    -0.438465972258E+03    0.17353E-01   -0.22115E+00  6336   0.499E+00    0.752E+00
DAV:   6    -0.438511562663E+03   -0.45590E-01   -0.19845E+00  6016   0.473E+00    0.853E+00
DAV:   7    -0.438371890988E+03    0.13967E+00   -0.11083E+00  5248   0.401E+00    0.487E+00
DAV:   8    -0.438357467002E+03    0.14424E-01   -0.53665E-01  5696   0.282E+00    0.440E+00
DAV:   9    -0.438392684678E+03   -0.35218E-01   -0.67905E-01  5312   0.293E+00    0.525E+00
DAV:  10    -0.438339209402E+03    0.53475E-01   -0.65355E-01  5120   0.287E+00    0.362E+00
DAV:  11    -0.438323381764E+03    0.15828E-01   -0.21948E-01  5312   0.177E+00    0.262E+00
DAV:  12    -0.438352492604E+03   -0.29111E-01   -0.24357E-01  4928   0.201E+00    0.393E+00
DAV:  13    -0.438314921479E+03    0.37571E-01   -0.20559E-01  4672   0.182E+00    0.178E+00
DAV:  14    -0.438310120360E+03    0.48011E-02   -0.57581E-02  5696   0.872E-01    0.121E+00
DAV:  15    -0.438312966025E+03   -0.28457E-02   -0.49612E-02  4928   0.794E-01    0.144E+00
DAV:  16    -0.438308090631E+03    0.48754E-02   -0.35383E-02  4800   0.702E-01    0.630E-01
DAV:  17    -0.438306878673E+03    0.12120E-02   -0.57907E-03  4800   0.348E-01    0.268E-01
DAV:  18    -0.438307096522E+03   -0.21785E-03   -0.25526E-03  5568   0.197E-01    0.365E-01
DAV:  19    -0.438307073039E+03    0.23483E-04   -0.28792E-03  4928   0.200E-01    0.312E-01
DAV:  20    -0.438306878442E+03    0.19460E-03   -0.16174E-03  5248   0.154E-01    0.157E-01
DAV:  21    -0.438306890015E+03   -0.11572E-04   -0.69456E-04  5248   0.103E-01    0.146E-01
DAV:  22    -0.438306944239E+03   -0.54224E-04   -0.62614E-04  5440   0.101E-01    0.152E-01
DAV:  23    -0.438306901558E+03    0.42681E-04   -0.37994E-04  5120   0.852E-02    0.680E-02
DAV:  24    -0.438306929785E+03   -0.28227E-04   -0.14022E-04  5888   0.521E-02    0.808E-02
DAV:  25    -0.438306981150E+03   -0.51365E-04   -0.13508E-04  4928   0.476E-02    0.838E-02
DAV:  26    -0.438306984913E+03   -0.37634E-05   -0.78643E-05  5760   0.391E-02    0.549E-02
DAV:  27    -0.438307014480E+03   -0.29567E-04   -0.52529E-05  4672   0.329E-02    0.556E-02
DAV:  28    -0.438307052175E+03   -0.37694E-04   -0.48121E-05  4608   0.296E-02    0.265E-02
DAV:  29    -0.438307060464E+03   -0.82897E-05   -0.10211E-05  4032   0.145E-02    0.218E-02
DAV:  30    -0.438307098844E+03   -0.38379E-04   -0.17660E-05  4352   0.156E-02    0.261E-02
DAV:  31    -0.438307120887E+03   -0.22043E-04   -0.11112E-05  4032   0.144E-02    0.228E-02
DAV:  32    -0.438307140337E+03   -0.19450E-04   -0.64298E-06  3584   0.111E-02    0.249E-02
DAV:  33    -0.438307180881E+03   -0.40544E-04   -0.11088E-05  4352   0.115E-02    0.120E-02
DAV:  34    -0.438307189213E+03   -0.83326E-05   -0.35770E-06  3392   0.784E-03    0.710E-03
DAV:  35    -0.438307213264E+03   -0.24051E-04   -0.48588E-06  3840   0.873E-03    0.155E-02
DAV:  36    -0.438307232501E+03   -0.19237E-04   -0.52538E-06  4224   0.889E-03    0.714E-03
DAV:  37    -0.438307235301E+03   -0.28001E-05   -0.95403E-07  3136   0.431E-03    0.606E-03
DAV:  38    -0.438307245223E+03   -0.99220E-05   -0.13001E-06  3392   0.403E-03    0.667E-03
DAV:  39    -0.438307247767E+03   -0.25437E-05   -0.70763E-07  3008   0.369E-03    0.299E-03
DAV:  40    -0.438307250256E+03   -0.24889E-05   -0.39255E-07  2944   0.253E-03    0.440E-03
DAV:  41    -0.438307255682E+03   -0.54265E-05   -0.63921E-07  3264   0.265E-03    0.273E-03
DAV:  42    -0.438307256588E+03   -0.90551E-06   -0.16404E-07  2816   0.163E-03
   6 F= -.43828771E+03 E0= -.43814842E+03  d E =-.105592E+01
       N       E                     dE             d eps       ncg     rms          rms(c)
DAV:   1    -0.437695747407E+03    0.61151E+00   -0.66870E+02  4096   0.368E+01    0.563E+00
DAV:   2    -0.447858962465E+03   -0.10163E+02   -0.60069E+01  6272   0.273E+01    0.470E+01
DAV:   3    -0.441842046195E+03    0.60169E+01   -0.43463E+01  6080   0.240E+01    0.335E+01
DAV:   4    -0.439445348277E+03    0.23967E+01   -0.24117E+01  5120   0.146E+01    0.169E+01
DAV:   5    -0.439205317868E+03    0.24003E+00   -0.97866E+00  6528   0.108E+01    0.139E+01
DAV:   6    -0.439620173074E+03   -0.41486E+00   -0.88234E+00  5824   0.104E+01    0.181E+01
DAV:   7    -0.439428478664E+03    0.19169E+00   -0.73302E+00  5248   0.999E+00    0.162E+01
DAV:   8    -0.438928279456E+03    0.50020E+00   -0.42429E+00  4864   0.804E+00    0.102E+01
DAV:   9    -0.438906565177E+03    0.21714E-01   -0.28471E+00  5696   0.633E+00    0.928E+00
DAV:  10    -0.439076911387E+03   -0.17035E+00   -0.44001E+00  5248   0.709E+00    0.130E+01
DAV:  11    -0.438748660267E+03    0.32825E+00   -0.17848E+00  4800   0.519E+00    0.721E+00
DAV:  12    -0.438775171667E+03   -0.26511E-01   -0.93396E-01  5248   0.363E+00    0.837E+00
DAV:  13    -0.438722629863E+03    0.52542E-01   -0.11450E+00  5120   0.357E+00    0.597E+00
DAV:  14    -0.438646939461E+03    0.75690E-01   -0.59993E-01  5312   0.297E+00    0.298E+00
DAV:  15    -0.438654078384E+03   -0.71389E-02   -0.33500E-01  5120   0.207E+00    0.337E+00
DAV:  16    -0.438637361740E+03    0.16717E-01   -0.24981E-01  5376   0.179E+00    0.235E+00
DAV:  17    -0.438621270741E+03    0.16091E-01   -0.71123E-02  5376   0.115E+00    0.924E-01
DAV:  18    -0.438623157110E+03   -0.18864E-02   -0.27962E-02  5184   0.648E-01    0.125E+00
DAV:  19    -0.438623243979E+03   -0.86869E-04   -0.35803E-02  4864   0.671E-01    0.123E+00
DAV:  20    -0.438619815335E+03    0.34286E-02   -0.20971E-02  4928   0.532E-01    0.508E-01
DAV:  21    -0.438619543413E+03    0.27192E-03   -0.48380E-03  4864   0.293E-01    0.394E-01
DAV:  22    -0.438619941880E+03   -0.39847E-03   -0.43803E-03  5376   0.294E-01    0.463E-01
DAV:  23    -0.438619653876E+03    0.28800E-03   -0.44265E-03  5184   0.278E-01    0.311E-01
DAV:  24    -0.438619450874E+03    0.20300E-03   -0.12924E-03  5248   0.179E-01    0.178E-01
DAV:  25    -0.438619597614E+03   -0.14674E-03   -0.10199E-03  6336   0.134E-01    0.232E-01
DAV:  26    -0.438619588443E+03    0.91717E-05   -0.87367E-04  4800   0.122E-01    0.142E-01
DAV:  27    -0.438619581403E+03    0.70400E-05   -0.30500E-04  5184   0.778E-02    0.976E-02
DAV:  28    -0.438619702436E+03   -0.12103E-03   -0.21723E-04  4608   0.690E-02    0.119E-01
DAV:  29    -0.438619737977E+03   -0.35541E-04   -0.18794E-04  5120   0.655E-02    0.502E-02
DAV:  30    -0.438619759793E+03   -0.21816E-04   -0.45669E-05  4992   0.303E-02    0.460E-02
DAV:  31    -0.438619860664E+03   -0.10087E-03   -0.64423E-05  4544   0.300E-02    0.468E-02
DAV:  32    -0.438619881018E+03   -0.20353E-04   -0.31050E-05  4608   0.237E-02    0.394E-02
DAV:  33    -0.438619928356E+03   -0.47338E-04   -0.32710E-05  4608   0.232E-02    0.454E-02
DAV:  34    -0.438620002582E+03   -0.74226E-04   -0.39660E-05  4544   0.232E-02    0.189E-02
DAV:  35    -0.438620021200E+03   -0.18618E-04   -0.11419E-05  4288   0.145E-02    0.161E-02
DAV:  36    -0.438620094509E+03   -0.73309E-04   -0.22212E-05  4480   0.172E-02    0.291E-02
DAV:  37    -0.438620120387E+03   -0.25878E-04   -0.12504E-05  4544   0.151E-02    0.226E-02
DAV:  38    -0.438620136257E+03   -0.15870E-04   -0.57076E-06  3520   0.997E-03    0.213E-02
DAV:  39    -0.438620164979E+03   -0.28722E-04   -0.82229E-06  4352   0.998E-03    0.933E-03
DAV:  40    -0.438620169594E+03   -0.46144E-05   -0.22820E-06  3264   0.622E-03    0.683E-03
DAV:  41    -0.438620182082E+03   -0.12489E-04   -0.23461E-06  3712   0.594E-03    0.985E-03
DAV:  42    -0.438620187043E+03   -0.49610E-05   -0.17340E-06  3072   0.568E-03    0.555E-03
DAV:  43    -0.438620188636E+03   -0.15926E-05   -0.52502E-07  2752   0.296E-03    0.545E-03
DAV:  44    -0.438620194213E+03   -0.55769E-05   -0.92730E-07  2816   0.307E-03    0.359E-03
DAV:  45    -0.438620195008E+03   -0.79516E-06   -0.24091E-07  2816   0.207E-03
   7 F= -.43861260E+03 E0= -.43847526E+03  d E =-.138082E+01
       N       E                     dE             d eps       ncg     rms          rms(c)
DAV:   1    -0.438522539182E+03    0.97655E-01   -0.15272E+02  4096   0.164E+01    0.359E+00
DAV:   2    -0.439608335472E+03   -0.10858E+01   -0.80532E+00  6080   0.119E+01    0.130E+01
DAV:   3    -0.439526419996E+03    0.81915E-01   -0.89210E+00  5056   0.130E+01    0.171E+01
DAV:   4    -0.439365437875E+03    0.16098E+00   -0.98377E+00  6272   0.841E+00    0.164E+01
DAV:   5    -0.439298266011E+03    0.67172E-01   -0.82195E+00  6336   0.733E+00    0.151E+01
DAV:   6    -0.439039204742E+03    0.25906E+00   -0.47642E+00  5312   0.719E+00    0.101E+01
DAV:   7    -0.438842670503E+03    0.19653E+00   -0.20021E+00  5376   0.553E+00    0.685E+00
DAV:   8    -0.438800191068E+03    0.42479E-01   -0.11464E+00  6144   0.356E+00    0.513E+00
DAV:   9    -0.438840090151E+03   -0.39899E-01   -0.88984E-01  5504   0.343E+00    0.606E+00
DAV:  10    -0.438760139659E+03    0.79950E-01   -0.69786E-01  5120   0.320E+00    0.354E+00
DAV:  11    -0.438735052621E+03    0.25087E-01   -0.25774E-01  5952   0.197E+00    0.203E+00
DAV:  12    -0.438758904638E+03   -0.23852E-01   -0.24236E-01  4992   0.187E+00    0.340E+00
DAV:  13    -0.438731620122E+03    0.27285E-01   -0.20820E-01  5120   0.169E+00    0.175E+00
DAV:  14    -0.438726563337E+03    0.50568E-02   -0.65110E-02  5248   0.986E-01    0.121E+00
DAV:  15    -0.438735592355E+03   -0.90290E-02   -0.81671E-02  4864   0.102E+00    0.215E+00
DAV:  16    -0.438724634767E+03    0.10958E-01   -0.69388E-02  4864   0.939E-01    0.813E-01
DAV:  17    -0.438722875860E+03    0.17589E-02   -0.11680E-02  4992   0.425E-01    0.315E-01
DAV:  18    -0.438723397001E+03   -0.52114E-03   -0.50886E-03  5312   0.299E-01    0.498E-01
DAV:  19    -0.438722997330E+03    0.39967E-03   -0.49656E-03  4736   0.271E-01    0.384E-01
DAV:  20    -0.438722737018E+03    0.26031E-03   -0.21268E-03  4608   0.164E-01    0.237E-01
DAV:  21    -0.438722714785E+03    0.22233E-04   -0.73408E-04  5184   0.103E-01    0.201E-01
DAV:  22    -0.438722733432E+03   -0.18647E-04   -0.91043E-04  5056   0.118E-01    0.171E-01
DAV:  23    -0.438722668499E+03    0.64933E-04   -0.59308E-04  5120   0.107E-01    0.122E-01
DAV:  24    -0.438722653675E+03    0.14824E-04   -0.20400E-04  5888   0.572E-02    0.940E-02
DAV:  25    -0.438722671795E+03   -0.18121E-04   -0.16834E-04  5504   0.557E-02    0.912E-02
DAV:  26    -0.438722664834E+03    0.69614E-05   -0.13414E-04  4992   0.496E-02    0.407E-02
DAV:  27    -0.438722668085E+03   -0.32513E-05   -0.27658E-05  4864   0.233E-02    0.360E-02
DAV:  28    -0.438722686957E+03   -0.18871E-04   -0.23106E-05  4736   0.229E-02    0.394E-02
DAV:  29    -0.438722693934E+03   -0.69778E-05   -0.17899E-05  3968   0.208E-02    0.165E-02
DAV:  30    -0.438722703586E+03   -0.96514E-05   -0.98596E-06  3072   0.132E-02    0.236E-02
DAV:  31    -0.438722734769E+03   -0.31184E-04   -0.14295E-05  3712   0.145E-02    0.194E-02
DAV:  32    -0.438722743135E+03   -0.83658E-05   -0.69479E-06  3456   0.115E-02    0.847E-03
DAV:  33    -0.438722756493E+03   -0.13358E-04   -0.40901E-06  3200   0.891E-03    0.137E-02
DAV:  34    -0.438722779955E+03   -0.23462E-04   -0.46236E-06  3456   0.881E-03    0.816E-03
DAV:  35    -0.438722784566E+03   -0.46109E-05   -0.13050E-06  2944   0.518E-03    0.720E-03
DAV:  36    -0.438722811563E+03   -0.26997E-04   -0.30035E-06  3776   0.648E-03    0.111E-02
DAV:  37    -0.438722818761E+03   -0.71981E-05   -0.18512E-06  3264   0.600E-03    0.409E-03
DAV:  38    -0.438722823000E+03   -0.42395E-05   -0.60987E-07  2816   0.342E-03    0.565E-03
DAV:  39    -0.438722834838E+03   -0.11838E-04   -0.85895E-07  3328   0.338E-03    0.351E-03
DAV:  40    -0.438722836228E+03   -0.13903E-05   -0.25459E-07  2816   0.212E-03    0.188E-03
DAV:  41    -0.438722841439E+03   -0.52108E-05   -0.23626E-07  3008   0.190E-03    0.298E-03
DAV:  42    -0.438722843767E+03   -0.23275E-05   -0.18120E-07  2816   0.183E-03    0.952E-04
DAV:  43    -0.438722845211E+03   -0.14445E-05   -0.73566E-08  2816   0.116E-03    0.178E-03
DAV:  44    -0.438722849978E+03   -0.47665E-05   -0.12182E-07  3008   0.118E-03    0.121E-03
DAV:  45    -0.438722850662E+03   -0.68458E-06   -0.38593E-08  2816   0.839E-04
   8 F= -.43871045E+03 E0= -.43857218E+03  d E =-.147866E+01
       N       E                     dE             d eps       ncg     rms          rms(c)
DAV:   1    -0.438752725812E+03   -0.29876E-01   -0.13202E+01  4096   0.485E+00    0.708E-01
DAV:   2    -0.438849826490E+03   -0.97101E-01   -0.62491E-01  5696   0.207E+00    0.650E+00
DAV:   3    -0.438784335571E+03    0.65491E-01   -0.77895E-01  5376   0.217E+00    0.300E+00
DAV:   4    -0.438775519449E+03    0.88161E-02   -0.21822E-01  4864   0.142E+00    0.212E+00
DAV:   5    -0.438799015409E+03   -0.23496E-01   -0.24523E-01  4928   0.162E+00    0.363E+00
DAV:   6    -0.438773278367E+03    0.25737E-01   -0.22224E-01  4992   0.155E+00    0.186E+00
DAV:   7    -0.438768752736E+03    0.45256E-02   -0.66997E-02  5120   0.956E-01    0.130E+00
DAV:   8    -0.438776470081E+03   -0.77173E-02   -0.81716E-02  5376   0.106E+00    0.203E+00
DAV:   9    -0.438769699520E+03    0.67706E-02   -0.85935E-02  5120   0.105E+00    0.133E+00
DAV:  10    -0.438766345986E+03    0.33535E-02   -0.37507E-02  5312   0.752E-01    0.869E-01
DAV:  11    -0.438767458885E+03   -0.11129E-02   -0.22900E-02  5184   0.581E-01    0.102E+00
DAV:  12    -0.438765775056E+03    0.16838E-02   -0.16645E-02  5184   0.514E-01    0.652E-01
DAV:  13    -0.438764683986E+03    0.10911E-02   -0.54737E-03  4672   0.323E-01    0.315E-01
DAV:  14    -0.438764648118E+03    0.35868E-04   -0.16021E-03  6272   0.150E-01    0.260E-01
DAV:  15    -0.438764691311E+03   -0.43193E-04   -0.17419E-03  5376   0.150E-01    0.258E-01
DAV:  16    -0.438764541986E+03    0.14933E-03   -0.13011E-03  4928   0.131E-01    0.140E-01
DAV:  17    -0.438764513943E+03    0.28043E-04   -0.26323E-04  4992   0.719E-02    0.104E-01
DAV:  18    -0.438764522316E+03   -0.83734E-05   -0.14010E-04  6144   0.472E-02    0.104E-01
DAV:  19    -0.438764524556E+03   -0.22403E-05   -0.21754E-04  5120   0.519E-02    0.904E-02
DAV:  20    -0.438764508269E+03    0.16288E-04   -0.14681E-04  4864   0.433E-02    0.399E-02
DAV:  21    -0.438764507576E+03    0.69308E-06   -0.33444E-05  4608   0.241E-02    0.288E-02
DAV:  22    -0.438764519105E+03   -0.11529E-04   -0.38880E-05  4800   0.245E-02    0.520E-02
DAV:  23    -0.438764515409E+03    0.36952E-05   -0.33392E-05  4160   0.227E-02    0.213E-02
DAV:  24    -0.438764516348E+03   -0.93883E-06   -0.50851E-06  2816   0.102E-02
   9 F= -.43875327E+03 E0= -.43861528E+03  d E =-.152149E+01
       N       E                     dE             d eps       ncg     rms          rms(c)
DAV:   1    -0.439277201172E+03   -0.51269E+00   -0.23062E+01  4544   0.634E+00    0.102E+00
DAV:   2    -0.439380802727E+03   -0.10360E+00   -0.85360E-01  5440   0.222E+00    0.658E+00
DAV:   3    -0.439329183774E+03    0.51619E-01   -0.10089E+00  5440   0.244E+00    0.392E+00
DAV:   4    -0.439335359338E+03   -0.61756E-02   -0.51269E-01  4992   0.212E+00    0.404E+00
DAV:   5    -0.439360942209E+03   -0.25583E-01   -0.50170E-01  5696   0.241E+00    0.479E+00
DAV:   6    -0.439308722004E+03    0.52220E-01   -0.38342E-01  5184   0.221E+00    0.247E+00
DAV:   7    -0.439307569743E+03    0.11523E-02   -0.17380E-01  5312   0.145E+00    0.232E+00
DAV:   8    -0.439317527417E+03   -0.99577E-02   -0.20487E-01  5056   0.162E+00    0.272E+00
DAV:   9    -0.439299521212E+03    0.18006E-01   -0.13551E-01  5312   0.147E+00    0.144E+00
DAV:  10    -0.439296492531E+03    0.30287E-02   -0.49725E-02  5568   0.881E-01    0.106E+00
DAV:  11    -0.439299048977E+03   -0.25564E-02   -0.40899E-02  5120   0.791E-01    0.134E+00
DAV:  12    -0.439296198390E+03    0.28506E-02   -0.37987E-02  5184   0.727E-01    0.946E-01
DAV:  13    -0.439293818351E+03    0.23800E-02   -0.14492E-02  5312   0.474E-01    0.354E-01
DAV:  14    -0.439294063621E+03   -0.24527E-03   -0.54933E-03  6336   0.288E-01    0.434E-01
DAV:  15    -0.439294324882E+03   -0.26126E-03   -0.62275E-03  5312   0.294E-01    0.505E-01
DAV:  16    -0.439293635441E+03    0.68944E-03   -0.36613E-03  4992   0.239E-01    0.188E-01
DAV:  17    -0.439293584529E+03    0.50912E-04   -0.55732E-04  5888   0.963E-02    0.120E-01
DAV:  18    -0.439293625015E+03   -0.40485E-04   -0.34848E-04  5952   0.794E-02    0.142E-01
DAV:  19    -0.439293619042E+03    0.59728E-05   -0.47806E-04  5120   0.786E-02    0.121E-01
DAV:  20    -0.439293592857E+03    0.26185E-04   -0.28511E-04  4864   0.613E-02    0.570E-02
DAV:  21    -0.439293593075E+03   -0.21802E-06   -0.80649E-05  6080   0.353E-02    0.390E-02
DAV:  22    -0.439293613065E+03   -0.19991E-04   -0.67296E-05  4992   0.352E-02    0.621E-02
DAV:  23    -0.439293612707E+03    0.35846E-06   -0.51740E-05  4736   0.315E-02    0.325E-02
DAV:  24    -0.439293613708E+03   -0.10007E-05   -0.11606E-05  3072   0.140E-02    0.237E-02
DAV:  25    -0.439293620995E+03   -0.72870E-05   -0.10718E-05  3392   0.132E-02    0.238E-02
DAV:  26    -0.439293628353E+03   -0.73586E-05   -0.10955E-05  3264   0.128E-02    0.115E-02
DAV:  27    -0.439293630554E+03   -0.22009E-05   -0.18986E-06  2816   0.597E-03    0.978E-03
DAV:  28    -0.439293640706E+03   -0.10151E-04   -0.24223E-06  3136   0.616E-03    0.101E-02
DAV:  29    -0.439293644698E+03   -0.39921E-05   -0.16314E-06  2944   0.561E-03    0.348E-03
DAV:  30    -0.439293647614E+03   -0.29158E-05   -0.73494E-07  2752   0.366E-03    0.596E-03
DAV:  31    -0.439293655617E+03   -0.80038E-05   -0.10287E-06  3008   0.355E-03    0.567E-03
DAV:  32    -0.439293657131E+03   -0.15133E-05   -0.42761E-07  2816   0.278E-03    0.359E-03
DAV:  33    -0.439293661319E+03   -0.41882E-05   -0.49631E-07  2816   0.283E-03    0.493E-03
DAV:  34    -0.439293666549E+03   -0.52299E-05   -0.74801E-07  3136   0.299E-03    0.267E-03
DAV:  35    -0.439293667473E+03   -0.92460E-06   -0.17912E-07  2816   0.166E-03
  10 F= -.43928409E+03 E0= -.43914654E+03  d E =-.530818E+00
       N       E                     dE             d eps       ncg     rms          rms(c)
DAV:   1    -0.439570904998E+03   -0.27724E+00   -0.39465E+01  4480   0.830E+00    0.146E+00
DAV:   2    -0.439709870075E+03   -0.13897E+00   -0.12877E+00  5312   0.275E+00    0.745E+00
DAV:   3    -0.439681799275E+03    0.28071E-01   -0.17925E+00  5696   0.326E+00    0.644E+00
DAV:   4    -0.439685584040E+03   -0.37848E-02   -0.13033E+00  5120   0.321E+00    0.603E+00
DAV:   5    -0.439735201854E+03   -0.49618E-01   -0.10894E+00  5504   0.355E+00    0.689E+00
DAV:   6    -0.439627596772E+03    0.10761E+00   -0.80571E-01  5056   0.320E+00    0.379E+00
DAV:   7    -0.439616110490E+03    0.11486E-01   -0.35025E-01  5376   0.202E+00    0.311E+00
DAV:   8    -0.439629563374E+03   -0.13453E-01   -0.35378E-01  5248   0.215E+00    0.343E+00
DAV:   9    -0.439607018561E+03    0.22545E-01   -0.25651E-01  5184   0.202E+00    0.228E+00
DAV:  10    -0.439597316822E+03    0.97017E-02   -0.11428E-01  5312   0.137E+00    0.153E+00
DAV:  11    -0.439600044536E+03   -0.27277E-02   -0.74128E-02  5248   0.107E+00    0.171E+00
DAV:  12    -0.439598994710E+03    0.10498E-02   -0.76659E-02  5184   0.104E+00    0.161E+00
DAV:  13    -0.439591749645E+03    0.72451E-02   -0.38613E-02  5248   0.774E-01    0.530E-01
DAV:  14    -0.439591681158E+03    0.68487E-04   -0.10027E-02  6144   0.381E-01    0.483E-01
DAV:  15    -0.439592810991E+03   -0.11298E-02   -0.11936E-02  5120   0.401E-01    0.767E-01
DAV:  16    -0.439591292467E+03    0.15185E-02   -0.85293E-03  4928   0.346E-01    0.300E-01
DAV:  17    -0.439591146968E+03    0.14550E-03   -0.12152E-03  5568   0.141E-01    0.186E-01
DAV:  18    -0.439591215532E+03   -0.68564E-04   -0.63825E-04  5248   0.111E-01    0.199E-01
DAV:  19    -0.439591139577E+03    0.75955E-04   -0.66018E-04  4672   0.105E-01    0.103E-01
DAV:  20    -0.439591123593E+03    0.15984E-04   -0.21533E-04  4608   0.685E-02    0.649E-02
DAV:  21    -0.439591132767E+03   -0.91746E-05   -0.13912E-04  6400   0.456E-02    0.758E-02
DAV:  22    -0.439591152373E+03   -0.19606E-04   -0.21316E-04  5120   0.497E-02    0.959E-02
DAV:  23    -0.439591138896E+03    0.13477E-04   -0.13250E-04  4864   0.432E-02    0.440E-02
DAV:  24    -0.439591138330E+03    0.56640E-06   -0.22373E-05  4288   0.194E-02    0.281E-02
DAV:  25    -0.439591145702E+03   -0.73722E-05   -0.20739E-05  3264   0.181E-02    0.336E-02
DAV:  26    -0.439591151208E+03   -0.55060E-05   -0.22222E-05  3264   0.178E-02    0.198E-02
DAV:  27    -0.439591152454E+03   -0.12458E-05   -0.37910E-06  2816   0.852E-03    0.152E-02
DAV:  28    -0.439591159539E+03   -0.70851E-05   -0.38339E-06  3328   0.815E-03    0.142E-02
DAV:  29    -0.439591163044E+03   -0.35048E-05   -0.30956E-06  3072   0.754E-03    0.447E-03
DAV:  30    -0.439591164562E+03   -0.15182E-05   -0.90821E-07  2816   0.400E-03    0.502E-03
DAV:  31    -0.439591169499E+03   -0.49377E-05   -0.10279E-06  3264   0.395E-03    0.608E-03
DAV:  32    -0.439591171149E+03   -0.16495E-05   -0.60455E-07  2816   0.346E-03    0.176E-03
DAV:  33    -0.439591172806E+03   -0.16569E-05   -0.22135E-07  2752   0.207E-03    0.312E-03
DAV:  34    -0.439591177840E+03   -0.50340E-05   -0.42044E-07  3008   0.210E-03    0.254E-03
DAV:  35    -0.439591178594E+03   -0.75391E-06   -0.12656E-07  2816   0.145E-03
  11 F= -.43958245E+03 E0= -.43944557E+03  d E =-.829174E+00
       N       E                     dE             d eps       ncg     rms          rms(c)
DAV:   1    -0.439788869109E+03   -0.19769E+00   -0.10011E+01  4096   0.417E+00    0.718E-01
DAV:   2    -0.439828303354E+03   -0.39434E-01   -0.28040E-01  5568   0.169E+00    0.307E+00
DAV:   3    -0.439818140940E+03    0.10162E-01   -0.27757E-01  4800   0.165E+00    0.283E+00
DAV:   4    -0.439818874126E+03   -0.73319E-03   -0.29778E-01  4800   0.140E+00    0.290E+00
DAV:   5    -0.439827119528E+03   -0.82454E-02   -0.20269E-01  4992   0.163E+00    0.277E+00
DAV:   6    -0.439818439839E+03    0.86797E-02   -0.16413E-01  5568   0.153E+00    0.221E+00
DAV:   7    -0.439804248383E+03    0.14191E-01   -0.81711E-02  4544   0.119E+00    0.961E-01
DAV:   8    -0.439807981393E+03   -0.37330E-02   -0.55889E-02  6208   0.903E-01    0.147E+00
DAV:   9    -0.439813771850E+03   -0.57905E-02   -0.82192E-02  4992   0.104E+00    0.203E+00
DAV:  10    -0.439803087630E+03    0.10684E-01   -0.58686E-02  4928   0.894E-01    0.683E-01
DAV:  11    -0.439802190711E+03    0.89692E-03   -0.10661E-02  5312   0.367E-01    0.429E-01
DAV:  12    -0.439802703046E+03   -0.51234E-03   -0.86548E-03  4992   0.319E-01    0.580E-01
DAV:  13    -0.439802347703E+03    0.35534E-03   -0.68595E-03  5120   0.300E-01    0.446E-01
DAV:  14    -0.439801854167E+03    0.49354E-03   -0.32821E-03  5056   0.211E-01    0.211E-01
DAV:  15    -0.439801848957E+03    0.52104E-05   -0.10758E-03  4864   0.113E-01    0.187E-01
DAV:  16    -0.439801822779E+03    0.26177E-04   -0.68519E-04  5632   0.100E-01    0.135E-01
DAV:  17    -0.439801762563E+03    0.60216E-04   -0.29293E-04  4992   0.776E-02    0.482E-02
DAV:  18    -0.439801775070E+03   -0.12507E-04   -0.10361E-04  5440   0.438E-02    0.751E-02
DAV:  19    -0.439801776661E+03   -0.15914E-05   -0.12408E-04  4800   0.461E-02    0.718E-02
DAV:  20    -0.439801764716E+03    0.11945E-04   -0.81252E-05  5056   0.374E-02    0.405E-02
DAV:  21    -0.439801762314E+03    0.24021E-05   -0.36254E-05  4416   0.216E-02    0.270E-02
DAV:  22    -0.439801764094E+03   -0.17800E-05   -0.24608E-05  3776   0.192E-02    0.291E-02
DAV:  23    -0.439801764389E+03   -0.29559E-06   -0.22413E-05  3712   0.183E-02    0.243E-02
DAV:  24    -0.439801762912E+03    0.14771E-05   -0.84484E-06  3072   0.127E-02    0.137E-02
DAV:  25    -0.439801763967E+03   -0.10547E-05   -0.32828E-06  2816   0.783E-03    0.138E-02
DAV:  26    -0.439801765771E+03   -0.18040E-05   -0.49394E-06  3072   0.851E-03    0.110E-02
DAV:  27    -0.439801765988E+03   -0.21694E-06   -0.17182E-06  2816   0.588E-03
  12 F= -.43979219E+03 E0= -.43965550E+03  d E =-.209741E+00
       N       E                     dE             d eps       ncg     rms          rms(c)
DAV:   1    -0.439979151694E+03   -0.17739E+00   -0.90735E+01  4096   0.125E+01    0.215E+00
DAV:   2    -0.440297552526E+03   -0.31840E+00   -0.24601E+00  5632   0.491E+00    0.788E+00
DAV:   3    -0.440193971460E+03    0.10358E+00   -0.17854E+00  4928   0.490E+00    0.577E+00
DAV:   4    -0.440657982061E+03   -0.46401E+00   -0.40938E+00  5440   0.552E+00    0.167E+01
DAV:   5    -0.440397741045E+03    0.26024E+00   -0.46938E+00  5824   0.591E+00    0.102E+01
DAV:   6    -0.440269001901E+03    0.12874E+00   -0.23492E+00  5184   0.484E+00    0.726E+00
DAV:   7    -0.440149596726E+03    0.11941E+00   -0.10520E+00  5248   0.366E+00    0.425E+00
DAV:   8    -0.440145144693E+03    0.44520E-02   -0.55209E-01  6336   0.251E+00    0.379E+00
DAV:   9    -0.440211775637E+03   -0.66631E-01   -0.69285E-01  4992   0.294E+00    0.605E+00
DAV:  10    -0.440117457032E+03    0.94319E-01   -0.56633E-01  5056   0.267E+00    0.208E+00
DAV:  11    -0.440107735154E+03    0.97219E-02   -0.88784E-02  5440   0.111E+00    0.107E+00
DAV:  12    -0.440118090677E+03   -0.10356E-01   -0.71337E-02  5120   0.112E+00    0.207E+00
DAV:  13    -0.440109693177E+03    0.83975E-02   -0.73748E-02  4992   0.107E+00    0.131E+00
DAV:  14    -0.440105265089E+03    0.44281E-02   -0.28738E-02  4800   0.626E-01    0.495E-01
DAV:  15    -0.440105239386E+03    0.25703E-04   -0.87815E-03  5376   0.338E-01    0.475E-01
DAV:  16    -0.440105447489E+03   -0.20810E-03   -0.68282E-03  4992   0.335E-01    0.511E-01
DAV:  17    -0.440104695434E+03    0.75205E-03   -0.38594E-03  4928   0.271E-01    0.241E-01
DAV:  18    -0.440104649748E+03    0.45686E-04   -0.83716E-04  6016   0.115E-01    0.203E-01
DAV:  19    -0.440104697983E+03   -0.48234E-04   -0.85687E-04  5440   0.117E-01    0.214E-01
DAV:  20    -0.440104630183E+03    0.67800E-04   -0.10770E-03  5056   0.112E-01    0.154E-01
DAV:  21    -0.440104585437E+03    0.44745E-04   -0.48236E-04  5312   0.786E-02    0.920E-02
DAV:  22    -0.440104599255E+03   -0.13818E-04   -0.19074E-04  5504   0.597E-02    0.986E-02
DAV:  23    -0.440104592255E+03    0.70004E-05   -0.17804E-04  5056   0.548E-02    0.690E-02
DAV:  24    -0.440104581829E+03    0.10426E-04   -0.75306E-05  5120   0.380E-02    0.252E-02
DAV:  25    -0.440104593694E+03   -0.11865E-04   -0.42957E-05  5376   0.291E-02    0.458E-02
DAV:  26    -0.440104597609E+03   -0.39151E-05   -0.33948E-05  5056   0.263E-02    0.247E-02
DAV:  27    -0.440104600377E+03   -0.27680E-05   -0.11946E-05  3712   0.159E-02    0.200E-02
DAV:  28    -0.440104609878E+03   -0.95008E-05   -0.92353E-06  3456   0.135E-02    0.237E-02
DAV:  29    -0.440104613605E+03   -0.37268E-05   -0.78906E-06  3200   0.124E-02    0.111E-02
DAV:  30    -0.440104618210E+03   -0.46054E-05   -0.39348E-06  3072   0.852E-03    0.146E-02
DAV:  31    -0.440104635613E+03   -0.17403E-04   -0.49132E-06  3840   0.836E-03    0.110E-02
DAV:  32    -0.440104639141E+03   -0.35275E-05   -0.24906E-06  3328   0.686E-03    0.540E-03
DAV:  33    -0.440104649161E+03   -0.10020E-04   -0.18616E-06  3392   0.602E-03    0.971E-03
DAV:  34    -0.440104657679E+03   -0.85187E-05   -0.17689E-06  3456   0.591E-03    0.492E-03
DAV:  35    -0.440104659605E+03   -0.19252E-05   -0.52250E-07  2816   0.297E-03    0.486E-03
DAV:  36    -0.440104670086E+03   -0.10481E-04   -0.81000E-07  3328   0.316E-03    0.477E-03
DAV:  37    -0.440104673016E+03   -0.29303E-05   -0.42608E-07  3072   0.296E-03    0.163E-03
DAV:  38    -0.440104676571E+03   -0.35546E-05   -0.32445E-07  2816   0.220E-03    0.372E-03
DAV:  39    -0.440104682257E+03   -0.56862E-05   -0.41524E-07  3072   0.217E-03    0.180E-03
DAV:  40    -0.440104683100E+03   -0.84368E-06   -0.10184E-07  2816   0.119E-03
  13 F= -.44009123E+03 E0= -.43995533E+03  d E =-.508786E+00
       N       E                     dE             d eps       ncg     rms          rms(c)
DAV:   1    -0.440277388682E+03   -0.17271E+00   -0.20311E+01  4160   0.498E+00    0.109E+00
DAV:   2    -0.440388448482E+03   -0.11106E+00   -0.73143E-01  6080   0.259E+00    0.630E+00
DAV:   3    -0.440358839502E+03    0.29609E-01   -0.13063E+00  5248   0.299E+00    0.604E+00
DAV:   4    -0.440316705188E+03    0.42134E-01   -0.79582E-01  4864   0.230E+00    0.338E+00
DAV:   5    -0.440378965976E+03   -0.62261E-01   -0.59665E-01  4928   0.276E+00    0.542E+00
DAV:   6    -0.440305810082E+03    0.73156E-01   -0.47866E-01  5184   0.258E+00    0.264E+00
DAV:   7    -0.440292257986E+03    0.13552E-01   -0.15680E-01  4736   0.141E+00    0.162E+00
DAV:   8    -0.440308431634E+03   -0.16174E-01   -0.15080E-01  5696   0.140E+00    0.289E+00
DAV:   9    -0.440304224484E+03    0.42071E-02   -0.19987E-01  4864   0.149E+00    0.250E+00
DAV:  10    -0.440289345645E+03    0.14879E-01   -0.10482E-01  4992   0.118E+00    0.116E+00
DAV:  11    -0.440287330212E+03    0.20154E-02   -0.23997E-02  5568   0.604E-01    0.811E-01
DAV:  12    -0.440288306053E+03   -0.97584E-03   -0.16710E-02  5184   0.544E-01    0.915E-01
DAV:  13    -0.440286081246E+03    0.22248E-02   -0.12151E-02  5120   0.459E-01    0.391E-01
DAV:  14    -0.440285786149E+03    0.29510E-03   -0.37439E-03  6016   0.220E-01    0.220E-01
DAV:  15    -0.440285900341E+03   -0.11419E-03   -0.22445E-03  5184   0.175E-01    0.276E-01
DAV:  16    -0.440285788829E+03    0.11151E-03   -0.14602E-03  5376   0.155E-01    0.196E-01
DAV:  17    -0.440285708263E+03    0.80565E-04   -0.52484E-04  5440   0.111E-01    0.134E-01
DAV:  18    -0.440285754719E+03   -0.46456E-04   -0.43581E-04  5568   0.889E-02    0.174E-01
DAV:  19    -0.440285728647E+03    0.26072E-04   -0.54837E-04  4992   0.910E-02    0.138E-01
DAV:  20    -0.440285681910E+03    0.46737E-04   -0.32646E-04  4800   0.691E-02    0.626E-02
DAV:  21    -0.440285677933E+03    0.39769E-05   -0.11515E-04  6080   0.375E-02    0.453E-02
DAV:  22    -0.440285684614E+03   -0.66810E-05   -0.81341E-05  5312   0.354E-02    0.583E-02
DAV:  23    -0.440285676944E+03    0.76703E-05   -0.51832E-05  4864   0.309E-02    0.304E-02
DAV:  24    -0.440285675591E+03    0.13531E-05   -0.11902E-05  3392   0.149E-02    0.204E-02
DAV:  25    -0.440285678507E+03   -0.29162E-05   -0.11411E-05  3072   0.142E-02    0.219E-02
DAV:  26    -0.440285679445E+03   -0.93797E-06   -0.10206E-05  3008   0.130E-02    0.158E-02
DAV:  27    -0.440285679864E+03   -0.41975E-06   -0.21528E-06  2624   0.636E-03
  14 F= -.44027027E+03 E0= -.44013500E+03  d E =-.179040E+00
       N       E                     dE             d eps       ncg     rms          rms(c)
DAV:   1    -0.440314540544E+03   -0.28861E-01   -0.11075E+01  4096   0.367E+00    0.824E-01
DAV:   2    -0.440383670905E+03   -0.69130E-01   -0.45814E-01  6080   0.204E+00    0.510E+00
DAV:   3    -0.440364452292E+03    0.19219E-01   -0.84205E-01  5568   0.237E+00    0.482E+00
DAV:   4    -0.440335832780E+03    0.28620E-01   -0.47223E-01  4800   0.181E+00    0.251E+00
DAV:   5    -0.440372135166E+03   -0.36302E-01   -0.34067E-01  5056   0.212E+00    0.412E+00
DAV:   6    -0.440329669103E+03    0.42466E-01   -0.27808E-01  5376   0.197E+00    0.200E+00
DAV:   7    -0.440321382261E+03    0.82868E-02   -0.88591E-02  4736   0.108E+00    0.118E+00
DAV:   8    -0.440328586093E+03   -0.72038E-02   -0.75846E-02  5504   0.101E+00    0.199E+00
DAV:   9    -0.440328284640E+03    0.30145E-03   -0.10481E-01  5056   0.108E+00    0.189E+00
DAV:  10    -0.440320057839E+03    0.82268E-02   -0.61101E-02  4928   0.897E-01    0.905E-01
DAV:  11    -0.440318786890E+03    0.12709E-02   -0.15393E-02  5888   0.485E-01    0.617E-01
DAV:  12    -0.440319433216E+03   -0.64633E-03   -0.10641E-02  5184   0.432E-01    0.720E-01
DAV:  13    -0.440317992693E+03    0.14405E-02   -0.73517E-03  5120   0.362E-01    0.286E-01
DAV:  14    -0.440317842122E+03    0.15057E-03   -0.20868E-03  6080   0.164E-01    0.163E-01
DAV:  15    -0.440317932629E+03   -0.90508E-04   -0.13790E-03  4928   0.136E-01    0.226E-01
DAV:  16    -0.440317870216E+03    0.62413E-04   -0.96541E-04  5248   0.125E-01    0.169E-01
DAV:  17    -0.440317809616E+03    0.60600E-04   -0.32330E-04  5056   0.881E-02    0.110E-01
DAV:  18    -0.440317833038E+03   -0.23422E-04   -0.23613E-04  5056   0.662E-02    0.131E-01
DAV:  19    -0.440317819768E+03    0.13270E-04   -0.32041E-04  5056   0.693E-02    0.101E-01
DAV:  20    -0.440317795193E+03    0.24575E-04   -0.17057E-04  4864   0.517E-02    0.469E-02
DAV:  21    -0.440317793180E+03    0.20125E-05   -0.58953E-05  4992   0.267E-02    0.366E-02
DAV:  22    -0.440317797675E+03   -0.44941E-05   -0.42020E-05  4672   0.253E-02    0.420E-02
DAV:  23    -0.440317796195E+03    0.14793E-05   -0.26015E-05  4672   0.222E-02    0.196E-02
DAV:  24    -0.440317795595E+03    0.60014E-06   -0.61498E-06  2688   0.110E-02
  15 F= -.44030042E+03 E0= -.44016566E+03  d E =-.209183E+00
       N       E                     dE             d eps       ncg     rms          rms(c)
DAV:   1    -0.440451818081E+03   -0.13402E+00   -0.11298E+01  4096   0.436E+00    0.687E-01
DAV:   2    -0.440606408006E+03   -0.15459E+00   -0.77862E-01  6592   0.285E+00    0.803E+00
DAV:   3    -0.440512908933E+03    0.93499E-01   -0.13937E+00  4672   0.291E+00    0.513E+00
DAV:   4    -0.440466136029E+03    0.46773E-01   -0.40550E-01  5184   0.174E+00    0.151E+00
DAV:   5    -0.440481994177E+03   -0.15858E-01   -0.15335E-01  5056   0.150E+00    0.271E+00
DAV:   6    -0.440473834422E+03    0.81598E-02   -0.16969E-01  4992   0.146E+00    0.223E+00
DAV:   7    -0.440463121519E+03    0.10713E-01   -0.82194E-02  4800   0.105E+00    0.116E+00
DAV:   8    -0.440466124240E+03   -0.30027E-02   -0.54298E-02  5632   0.856E-01    0.159E+00
DAV:   9    -0.440470577447E+03   -0.44532E-02   -0.89527E-02  5184   0.103E+00    0.193E+00
DAV:  10    -0.440462924915E+03    0.76525E-02   -0.71221E-02  4672   0.969E-01    0.106E+00
DAV:  11    -0.440460891627E+03    0.20333E-02   -0.21511E-02  5696   0.585E-01    0.650E-01
DAV:  12    -0.440462305102E+03   -0.14135E-02   -0.14839E-02  4928   0.518E-01    0.897E-01
DAV:  13    -0.440460146572E+03    0.21585E-02   -0.10751E-02  5056   0.445E-01    0.384E-01
DAV:  14    -0.440459821470E+03    0.32510E-03   -0.26058E-03  6080   0.187E-01    0.182E-01
DAV:  15    -0.440459829179E+03   -0.77093E-05   -0.10093E-03  5440   0.112E-01    0.176E-01
DAV:  16    -0.440459828796E+03    0.38330E-06   -0.77866E-04  5120   0.108E-01    0.154E-01
DAV:  17    -0.440459764285E+03    0.64511E-04   -0.34534E-04  4736   0.867E-02    0.920E-02
DAV:  18    -0.440459775160E+03   -0.10874E-04   -0.13521E-04  4928   0.497E-02    0.997E-02
DAV:  19    -0.440459777045E+03   -0.18851E-05   -0.16807E-04  4736   0.534E-02    0.867E-02
DAV:  20    -0.440459758006E+03    0.19039E-04   -0.10440E-04  4992   0.452E-02    0.350E-02
DAV:  21    -0.440459759137E+03   -0.11314E-05   -0.32479E-05  4608   0.246E-02    0.344E-02
DAV:  22    -0.440459764234E+03   -0.50974E-05   -0.55070E-05  4736   0.254E-02    0.491E-02
DAV:  23    -0.440459761210E+03    0.30245E-05   -0.45168E-05  3968   0.235E-02    0.275E-02
DAV:  24    -0.440459760549E+03    0.66138E-06   -0.86501E-06  2624   0.124E-02
  16 F= -.44044226E+03 E0= -.44030813E+03  d E =-.141841E+00
       N       E                     dE             d eps       ncg     rms          rms(c)
DAV:   1    -0.440604478953E+03   -0.14472E+00   -0.10194E+02  4096   0.132E+01    0.214E+00
DAV:   2    -0.441639793403E+03   -0.10353E+01   -0.47070E+00  6784   0.738E+00    0.206E+01
DAV:   3    -0.441104528440E+03    0.53526E+00   -0.10588E+01  4800   0.759E+00    0.144E+01
DAV:   4    -0.440766094704E+03    0.33843E+00   -0.37832E+00  5312   0.491E+00    0.507E+00
DAV:   5    -0.440938410268E+03   -0.17232E+00   -0.16152E+00  5056   0.479E+00    0.895E+00
DAV:   6    -0.440823262447E+03    0.11515E+00   -0.17389E+00  4928   0.458E+00    0.677E+00
DAV:   7    -0.440747156155E+03    0.76106E-01   -0.79692E-01  4736   0.313E+00    0.454E+00
DAV:   8    -0.440750108370E+03   -0.29522E-02   -0.50299E-01  5568   0.276E+00    0.451E+00
DAV:   9    -0.440797949626E+03   -0.47841E-01   -0.80698E-01  5696   0.322E+00    0.582E+00
DAV:  10    -0.440733684823E+03    0.64265E-01   -0.71191E-01  4672   0.315E+00    0.372E+00
DAV:  11    -0.440704965488E+03    0.28719E-01   -0.23430E-01  5888   0.185E+00    0.187E+00
DAV:  12    -0.440721428518E+03   -0.16463E-01   -0.14851E-01  4864   0.166E+00    0.297E+00
DAV:  13    -0.440700462274E+03    0.20966E-01   -0.11666E-01  4992   0.146E+00    0.143E+00
DAV:  14    -0.440695786269E+03    0.46760E-02   -0.32020E-02  5888   0.701E-01    0.760E-01
DAV:  15    -0.440696104725E+03   -0.31846E-03   -0.16678E-02  5312   0.443E-01    0.790E-01
DAV:  16    -0.440695755053E+03    0.34967E-03   -0.14855E-02  5248   0.443E-01    0.616E-01
DAV:  17    -0.440694709536E+03    0.10455E-02   -0.60471E-03  4864   0.337E-01    0.328E-01
DAV:  18    -0.440694767791E+03   -0.58255E-04   -0.18825E-03  4928   0.184E-01    0.341E-01
DAV:  19    -0.440694759114E+03    0.86775E-05   -0.22558E-03  5184   0.183E-01    0.294E-01
DAV:  20    -0.440694596100E+03    0.16301E-03   -0.17711E-03  5120   0.154E-01    0.182E-01
DAV:  21    -0.440694540662E+03    0.55438E-04   -0.63953E-04  5440   0.937E-02    0.109E-01
DAV:  22    -0.440694578098E+03   -0.37436E-04   -0.38718E-04  6144   0.837E-02    0.135E-01
DAV:  23    -0.440694570110E+03    0.79882E-05   -0.36573E-04  4608   0.782E-02    0.108E-01
DAV:  24    -0.440694548028E+03    0.22082E-04   -0.15497E-04  4928   0.532E-02    0.632E-02
DAV:  25    -0.440694557431E+03   -0.94028E-05   -0.74073E-05  5760   0.377E-02    0.622E-02
DAV:  26    -0.440694567321E+03   -0.98899E-05   -0.81496E-05  4480   0.349E-02    0.418E-02
DAV:  27    -0.440694566579E+03    0.74158E-06   -0.24064E-05  4864   0.215E-02    0.266E-02
DAV:  28    -0.440694574479E+03   -0.78995E-05   -0.12283E-05  3200   0.150E-02    0.269E-02
DAV:  29    -0.440694581762E+03   -0.72837E-05   -0.11293E-05  3136   0.143E-02    0.114E-02
DAV:  30    -0.440694584677E+03   -0.29145E-05   -0.26496E-06  2688   0.742E-03    0.105E-02
DAV:  31    -0.440694597745E+03   -0.13068E-04   -0.42122E-06  3136   0.807E-03    0.149E-02
DAV:  32    -0.440694600701E+03   -0.29558E-05   -0.30847E-06  3008   0.726E-03    0.626E-03
DAV:  33    -0.440694604798E+03   -0.40963E-05   -0.16231E-06  2816   0.554E-03    0.994E-03
DAV:  34    -0.440694617130E+03   -0.12332E-04   -0.27000E-06  3200   0.578E-03    0.657E-03
DAV:  35    -0.440694619504E+03   -0.23743E-05   -0.89477E-07  2944   0.447E-03    0.319E-03
DAV:  36    -0.440694624231E+03   -0.47270E-05   -0.10852E-06  3136   0.457E-03    0.776E-03
DAV:  37    -0.440694628991E+03   -0.47602E-05   -0.12703E-06  3008   0.464E-03    0.364E-03
DAV:  38    -0.440694629919E+03   -0.92783E-06   -0.38382E-07  2816   0.268E-03
  17 F= -.44067848E+03 E0= -.44054648E+03  d E =-.378058E+00
       N       E                     dE             d eps       ncg     rms          rms(c)
DAV:   1    -0.440789869861E+03   -0.95241E-01   -0.67546E+00  4096   0.282E+00    0.743E-01
DAV:   2    -0.441159429148E+03   -0.36956E+00   -0.19798E+00  6272   0.372E+00    0.137E+01
DAV:   3    -0.440822567704E+03    0.33686E+00   -0.24106E+00  4736   0.360E+00    0.299E+00
DAV:   4    -0.440804223901E+03    0.18344E-01   -0.22188E-01  5440   0.147E+00    0.172E+00
DAV:   5    -0.440837529023E+03   -0.33305E-01   -0.22712E-01  5504   0.183E+00    0.377E+00
DAV:   6    -0.440805797098E+03    0.31732E-01   -0.24785E-01  4928   0.181E+00    0.201E+00
DAV:   7    -0.440797891282E+03    0.79058E-02   -0.88039E-02  5120   0.112E+00    0.116E+00
DAV:   8    -0.440803608267E+03   -0.57170E-02   -0.69691E-02  5568   0.993E-01    0.185E+00
DAV:   9    -0.440804378353E+03   -0.77009E-03   -0.99570E-02  4928   0.105E+00    0.186E+00
DAV:  10    -0.440795970301E+03    0.84081E-02   -0.54344E-02  4864   0.859E-01    0.782E-01
DAV:  11    -0.440794771711E+03    0.11986E-02   -0.11107E-02  5888   0.430E-01    0.473E-01
DAV:  12    -0.440795486904E+03   -0.71519E-03   -0.78720E-03  6016   0.362E-01    0.639E-01
DAV:  13    -0.440794696220E+03    0.79068E-03   -0.81126E-03  5120   0.341E-01    0.405E-01
DAV:  14    -0.440794368735E+03    0.32749E-03   -0.37470E-03  4992   0.225E-01    0.252E-01
DAV:  15    -0.440794412817E+03   -0.44082E-04   -0.19098E-03  6336   0.161E-01    0.258E-01
DAV:  16    -0.440794361529E+03    0.51288E-04   -0.11380E-03  5120   0.140E-01    0.198E-01
DAV:  17    -0.440794267568E+03    0.93961E-04   -0.45695E-04  5120   0.102E-01    0.107E-01
DAV:  18    -0.440794270262E+03   -0.26941E-05   -0.15093E-04  6144   0.528E-02    0.939E-02
DAV:  19    -0.440794281767E+03   -0.11505E-04   -0.19097E-04  5312   0.542E-02    0.790E-02
DAV:  20    -0.440794272026E+03    0.97411E-05   -0.10294E-04  4864   0.451E-02    0.504E-02
DAV:  21    -0.440794273614E+03   -0.15879E-05   -0.32713E-05  4672   0.231E-02    0.444E-02
DAV:  22    -0.440794280088E+03   -0.64743E-05   -0.32855E-05  4288   0.213E-02    0.450E-02
DAV:  23    -0.440794285867E+03   -0.57786E-05   -0.39832E-05  4032   0.223E-02    0.275E-02
DAV:  24    -0.440794288059E+03   -0.21922E-05   -0.15994E-05  3136   0.155E-02    0.163E-02
DAV:  25    -0.440794294170E+03   -0.61108E-05   -0.95057E-06  3008   0.131E-02    0.226E-02
DAV:  26    -0.440794302283E+03   -0.81130E-05   -0.72537E-06  3200   0.112E-02    0.118E-02
DAV:  27    -0.440794304021E+03   -0.17378E-05   -0.18133E-06  2816   0.604E-03    0.811E-03
DAV:  28    -0.440794312345E+03   -0.83241E-05   -0.22191E-06  3200   0.619E-03    0.114E-02
DAV:  29    -0.440794319190E+03   -0.68445E-05   -0.21920E-06  3136   0.610E-03    0.490E-03
DAV:  30    -0.440794321361E+03   -0.21718E-05   -0.64574E-07  2816   0.331E-03    0.476E-03
DAV:  31    -0.440794333412E+03   -0.12050E-04   -0.17482E-06  3136   0.465E-03    0.813E-03
DAV:  32    -0.440794338531E+03   -0.51190E-05   -0.12894E-06  3200   0.446E-03    0.279E-03
DAV:  33    -0.440794339995E+03   -0.14643E-05   -0.36234E-07  2816   0.245E-03    0.319E-03
DAV:  34    -0.440794344351E+03   -0.43558E-05   -0.47248E-07  2880   0.223E-03    0.298E-03
DAV:  35    -0.440794345112E+03   -0.76133E-06   -0.18458E-07  2816   0.183E-03
  18 F= -.44078033E+03 E0= -.44064822E+03  d E =-.101857E+00
       N       E                     dE             d eps       ncg     rms          rms(c)
DAV:   1    -0.440794460533E+03   -0.11618E-03   -0.77226E-03  4224   0.963E-02    0.259E-02
DAV:   2    -0.440794893364E+03   -0.43283E-03   -0.25002E-03  5952   0.130E-01    0.458E-01
DAV:   3    -0.440794499448E+03    0.39392E-03   -0.27613E-03  5056   0.126E-01    0.116E-01
DAV:   4    -0.440794477831E+03    0.21616E-04   -0.29017E-04  5440   0.542E-02    0.559E-02
DAV:   5    -0.440794515645E+03   -0.37814E-04   -0.24264E-04  5312   0.623E-02    0.121E-01
DAV:   6    -0.440794484835E+03    0.30810E-04   -0.27665E-04  4800   0.616E-02    0.803E-02
DAV:   7    -0.440794473941E+03    0.10894E-04   -0.12190E-04  4800   0.397E-02    0.407E-02
DAV:   8    -0.440794478714E+03   -0.47722E-05   -0.76406E-05  4864   0.321E-02    0.553E-02
DAV:   9    -0.440794484770E+03   -0.60566E-05   -0.11092E-04  4672   0.372E-02    0.691E-02
DAV:  10    -0.440794472736E+03    0.12034E-04   -0.71649E-05  4800   0.323E-02    0.272E-02
DAV:  11    -0.440794471496E+03    0.12398E-05   -0.12239E-05  2880   0.156E-02    0.142E-02
DAV:  12    -0.440794472309E+03   -0.81271E-06   -0.69362E-06  2688   0.112E-02
  19 F= -.44078056E+03 E0= -.44064844E+03  d E =-.102088E+00
       N       E                     dE             d eps       ncg     rms          rms(c)
DAV:   1    -0.440833488986E+03   -0.39017E-01   -0.37108E+00  4096   0.262E+00    0.449E-01
DAV:   2    -0.441081240442E+03   -0.24775E+00   -0.12838E+00  6720   0.297E+00    0.114E+01
DAV:   3    -0.440849669413E+03    0.23157E+00   -0.15656E+00  4992   0.292E+00    0.201E+00
DAV:   4    -0.440840077144E+03    0.95923E-02   -0.11505E-01  5184   0.111E+00    0.136E+00
DAV:   5    -0.440843939301E+03   -0.38622E-02   -0.71458E-02  4864   0.115E+00    0.158E+00
DAV:   6    -0.440845796988E+03   -0.18577E-02   -0.79512E-02  4800   0.104E+00    0.189E+00
DAV:   7    -0.440836765933E+03    0.90311E-02   -0.50713E-02  4864   0.835E-01    0.740E-01
DAV:   8    -0.440835969044E+03    0.79689E-03   -0.14376E-02  6400   0.416E-01    0.522E-01
DAV:   9    -0.440838275086E+03   -0.23060E-02   -0.19229E-02  4864   0.492E-01    0.103E+00
DAV:  10    -0.440836574356E+03    0.17007E-02   -0.19100E-02  4992   0.489E-01    0.637E-01
DAV:  11    -0.440835542415E+03    0.10319E-02   -0.55048E-03  4864   0.304E-01    0.287E-01
DAV:  12    -0.440835640914E+03   -0.98499E-04   -0.19545E-03  5504   0.183E-01    0.306E-01
DAV:  13    -0.440835513670E+03    0.12724E-03   -0.19672E-03  4992   0.174E-01    0.211E-01
DAV:  14    -0.440835399432E+03    0.11424E-03   -0.73114E-04  5056   0.120E-01    0.119E-01
DAV:  15    -0.440835420472E+03   -0.21040E-04   -0.36491E-04  5184   0.744E-02    0.143E-01
DAV:  16    -0.440835415284E+03    0.51879E-05   -0.43561E-04  5440   0.726E-02    0.131E-01
DAV:  17    -0.440835378080E+03    0.37204E-04   -0.22267E-04  4992   0.571E-02    0.602E-02
DAV:  18    -0.440835372822E+03    0.52584E-05   -0.46303E-05  5632   0.299E-02    0.393E-02
DAV:  19    -0.440835376346E+03   -0.35245E-05   -0.41802E-05  5056   0.266E-02    0.428E-02
DAV:  20    -0.440835372107E+03    0.42391E-05   -0.34832E-05  4288   0.238E-02    0.280E-02
DAV:  21    -0.440835371551E+03    0.55631E-06   -0.85087E-06  2688   0.129E-02
  20 F= -.44082134E+03 E0= -.44068886E+03  d E =-.407802E-01
       N       E                     dE             d eps       ncg     rms          rms(c)
DAV:   1    -0.440868854845E+03   -0.33483E-01   -0.33581E+01  4096   0.788E+00    0.141E+00
DAV:   2    -0.442931636687E+03   -0.20628E+01   -0.87395E+00  6016   0.870E+00    0.321E+01
DAV:   3    -0.441006696132E+03    0.19249E+01   -0.12111E+01  4928   0.842E+00    0.569E+00
DAV:   4    -0.440980372512E+03    0.26324E-01   -0.13821E+00  5056   0.387E+00    0.602E+00
DAV:   5    -0.440951951086E+03    0.28421E-01   -0.86301E-01  4992   0.346E+00    0.422E+00
DAV:   6    -0.440974499642E+03   -0.22549E-01   -0.67585E-01  5120   0.310E+00    0.538E+00
DAV:   7    -0.440906839100E+03    0.67661E-01   -0.47863E-01  4992   0.255E+00    0.256E+00
DAV:   8    -0.440895807654E+03    0.11031E-01   -0.14911E-01  6336   0.132E+00    0.151E+00
DAV:   9    -0.440912768994E+03   -0.16961E-01   -0.14614E-01  5120   0.138E+00    0.287E+00
DAV:  10    -0.440899268260E+03    0.13501E-01   -0.15117E-01  4736   0.137E+00    0.171E+00
DAV:  11    -0.440890821230E+03    0.84470E-02   -0.45086E-02  4992   0.865E-01    0.550E-01
DAV:  12    -0.440892670522E+03   -0.18493E-02   -0.21110E-02  5888   0.580E-01    0.932E-01
DAV:  13    -0.440892663196E+03    0.73253E-05   -0.26820E-02  4864   0.593E-01    0.947E-01
DAV:  14    -0.440890471455E+03    0.21917E-02   -0.14837E-02  4800   0.447E-01    0.444E-01
DAV:  15    -0.440890231001E+03    0.24045E-03   -0.35593E-03  5568   0.226E-01    0.327E-01
DAV:  16    -0.440890309383E+03   -0.78382E-04   -0.22981E-03  5120   0.200E-01    0.332E-01
DAV:  17    -0.440890053399E+03    0.25598E-03   -0.16376E-03  4864   0.167E-01    0.165E-01
DAV:  18    -0.440889986733E+03    0.66667E-04   -0.46280E-04  4992   0.972E-02    0.828E-02
DAV:  19    -0.440890022227E+03   -0.35494E-04   -0.36637E-04  6208   0.736E-02    0.130E-01
DAV:  20    -0.440890009418E+03    0.12809E-04   -0.44475E-04  4800   0.715E-02    0.116E-01
DAV:  21    -0.440889980299E+03    0.29119E-04   -0.19198E-04  4736   0.519E-02    0.643E-02
DAV:  22    -0.440889982153E+03   -0.18545E-05   -0.57738E-05  5248   0.306E-02    0.586E-02
DAV:  23    -0.440889982066E+03    0.87166E-07   -0.83096E-05  4864   0.322E-02    0.494E-02
DAV:  24    -0.440889976375E+03    0.56907E-05   -0.42030E-05  4800   0.268E-02    0.296E-02
DAV:  25    -0.440889980031E+03   -0.36552E-05   -0.23851E-05  3840   0.219E-02    0.398E-02
DAV:  26    -0.440889976802E+03    0.32282E-05   -0.19565E-05  2944   0.193E-02    0.195E-02
DAV:  27    -0.440889976147E+03    0.65504E-06   -0.47591E-06  2560   0.976E-03
  21 F= -.44087529E+03 E0= -.44074176E+03  d E =-.947297E-01
       N       E                     dE             d eps       ncg     rms          rms(c)
DAV:   1    -0.440919257610E+03   -0.29281E-01   -0.18276E+00  4096   0.176E+00    0.288E-01
DAV:   2    -0.441074931280E+03   -0.15567E+00   -0.81886E-01  6272   0.233E+00    0.903E+00
DAV:   3    -0.440928356292E+03    0.14657E+00   -0.97466E-01  5312   0.229E+00    0.156E+00
DAV:   4    -0.440921378149E+03    0.69781E-02   -0.54299E-02  5696   0.738E-01    0.688E-01
DAV:   5    -0.440925045868E+03   -0.36677E-02   -0.30434E-02  5056   0.735E-01    0.122E+00
DAV:   6    -0.440922549414E+03    0.24965E-02   -0.33225E-02  4928   0.690E-01    0.905E-01
DAV:   7    -0.440920613964E+03    0.19354E-02   -0.14386E-02  4800   0.468E-01    0.432E-01
DAV:   8    -0.440920559366E+03    0.54598E-04   -0.62398E-03  6336   0.284E-01    0.402E-01
DAV:   9    -0.440921696445E+03   -0.11371E-02   -0.10094E-02  5248   0.345E-01    0.743E-01
DAV:  10    -0.440920568770E+03    0.11277E-02   -0.88999E-03  4800   0.332E-01    0.357E-01
DAV:  11    -0.440920230691E+03    0.33808E-03   -0.21164E-03  5376   0.193E-01    0.147E-01
DAV:  12    -0.440920351121E+03   -0.12043E-03   -0.11490E-03  5632   0.134E-01    0.231E-01
DAV:  13    -0.440920251097E+03    0.10002E-03   -0.11315E-03  5056   0.122E-01    0.153E-01
DAV:  14    -0.440920203662E+03    0.47435E-04   -0.41795E-04  5312   0.751E-02    0.817E-02
DAV:  15    -0.440920209845E+03   -0.61834E-05   -0.16933E-04  5120   0.490E-02    0.850E-02
DAV:  16    -0.440920205546E+03    0.42990E-05   -0.14177E-04  5056   0.465E-02    0.673E-02
DAV:  17    -0.440920192044E+03    0.13502E-04   -0.58896E-05  4672   0.349E-02    0.229E-02
DAV:  18    -0.440920192713E+03   -0.66860E-06   -0.17389E-05  3392   0.177E-02    0.244E-02
DAV:  19    -0.440920194183E+03   -0.14698E-05   -0.22976E-05  2944   0.180E-02    0.304E-02
DAV:  20    -0.440920192854E+03    0.13291E-05   -0.16850E-05  2816   0.153E-02    0.238E-02
DAV:  21    -0.440920192412E+03    0.44181E-06   -0.57597E-06  2624   0.903E-03
  22 F= -.44090547E+03 E0= -.44077169E+03  d E =-.301734E-01
       N       E                     dE             d eps       ncg     rms          rms(c)
DAV:   1    -0.440987287402E+03   -0.67095E-01   -0.16417E+01  4096   0.529E+00    0.858E-01
DAV:   2    -0.442387688182E+03   -0.14004E+01   -0.63332E+00  6464   0.689E+00    0.268E+01
DAV:   3    -0.441047807438E+03    0.13399E+01   -0.81275E+00  5440   0.669E+00    0.376E+00
DAV:   4    -0.441015962249E+03    0.31845E-01   -0.46298E-01  5568   0.211E+00    0.275E+00
DAV:   5    -0.441032658825E+03   -0.16697E-01   -0.28151E-01  5120   0.220E+00    0.320E+00
DAV:   6    -0.441018937920E+03    0.13721E-01   -0.26730E-01  4672   0.198E+00    0.275E+00
DAV:   7    -0.440999558241E+03    0.19380E-01   -0.12535E-01  4800   0.139E+00    0.110E+00
DAV:   8    -0.441002036703E+03   -0.24785E-02   -0.58263E-02  6400   0.858E-01    0.146E+00
DAV:   9    -0.441012347762E+03   -0.10311E-01   -0.10540E-01  4800   0.108E+00    0.243E+00
DAV:  10    -0.440999448206E+03    0.12900E-01   -0.89777E-02  4864   0.102E+00    0.974E-01
DAV:  11    -0.440996993593E+03    0.24546E-02   -0.17565E-02  5376   0.524E-01    0.433E-01
DAV:  12    -0.440998236290E+03   -0.12427E-02   -0.12402E-02  4928   0.434E-01    0.753E-01
DAV:  13    -0.440997176143E+03    0.10601E-02   -0.11859E-02  5120   0.396E-01    0.514E-01
DAV:  14    -0.440996683807E+03    0.49234E-03   -0.40197E-03  5184   0.231E-01    0.314E-01
DAV:  15    -0.440996695099E+03   -0.11292E-04   -0.14876E-03  5056   0.150E-01    0.295E-01
DAV:  16    -0.440996582439E+03    0.11266E-03   -0.12795E-03  5248   0.136E-01    0.184E-01
DAV:  17    -0.440996485822E+03    0.96617E-04   -0.49065E-04  5248   0.976E-02    0.643E-02
DAV:  18    -0.440996519068E+03   -0.33246E-04   -0.29975E-04  5248   0.683E-02    0.119E-01
DAV:  19    -0.440996511446E+03    0.76216E-05   -0.37837E-04  4928   0.668E-02    0.111E-01
DAV:  20    -0.440996489094E+03    0.22352E-04   -0.16897E-04  4992   0.482E-02    0.668E-02
DAV:  21    -0.440996486911E+03    0.21827E-05   -0.40771E-05  5184   0.270E-02    0.554E-02
DAV:  22    -0.440996489709E+03   -0.27980E-05   -0.53690E-05  4864   0.299E-02    0.488E-02
DAV:  23    -0.440996486765E+03    0.29442E-05   -0.52393E-05  4800   0.290E-02    0.359E-02
DAV:  24    -0.440996485900E+03    0.86494E-06   -0.16064E-05  2944   0.171E-02    0.291E-02
DAV:  25    -0.440996487995E+03   -0.20954E-05   -0.13608E-05  2944   0.159E-02    0.293E-02
DAV:  26    -0.440996486695E+03    0.13006E-05   -0.10390E-05  2944   0.142E-02    0.897E-03
DAV:  27    -0.440996487030E+03   -0.33544E-06   -0.15934E-06  2560   0.560E-03
  23 F= -.44098196E+03 E0= -.44084752E+03  d E =-.106667E+00
       N       E                     dE             d eps       ncg     rms          rms(c)
DAV:   1    -0.441040464472E+03   -0.43978E-01   -0.65384E+01  4096   0.106E+01    0.168E+00
DAV:   2    -0.445542686694E+03   -0.45022E+01   -0.17041E+01  6528   0.126E+01    0.444E+01
DAV:   3    -0.441204401465E+03    0.43383E+01   -0.20672E+01  5312   0.119E+01    0.580E+00
DAV:   4    -0.441209473931E+03   -0.50725E-02   -0.18076E+00  5440   0.415E+00    0.709E+00
DAV:   5    -0.441185636263E+03    0.23838E-01   -0.12303E+00  5312   0.406E+00    0.524E+00
DAV:   6    -0.441157717940E+03    0.27918E-01   -0.86118E-01  4992   0.348E+00    0.491E+00
DAV:   7    -0.441102261216E+03    0.55457E-01   -0.47343E-01  4992   0.267E+00    0.261E+00
DAV:   8    -0.441109919968E+03   -0.76588E-02   -0.26000E-01  6336   0.178E+00    0.303E+00
DAV:   9    -0.441150833323E+03   -0.40913E-01   -0.41907E-01  4800   0.219E+00    0.495E+00
DAV:  10    -0.441097897725E+03    0.52936E-01   -0.38480E-01  4800   0.209E+00    0.197E+00
DAV:  11    -0.441087580031E+03    0.10318E-01   -0.78315E-02  5376   0.108E+00    0.863E-01
DAV:  12    -0.441095231340E+03   -0.76513E-02   -0.67041E-02  4992   0.994E-01    0.179E+00
DAV:  13    -0.441089084480E+03    0.61469E-02   -0.63147E-02  4672   0.908E-01    0.117E+00
DAV:  14    -0.441086538496E+03    0.25460E-02   -0.16921E-02  5120   0.486E-01    0.735E-01
DAV:  15    -0.441086173773E+03    0.36472E-03   -0.48687E-03  5760   0.261E-01    0.596E-01
DAV:  16    -0.441085861808E+03    0.31197E-03   -0.52462E-03  5184   0.262E-01    0.390E-01
DAV:  17    -0.441085460665E+03    0.40114E-03   -0.28859E-03  5056   0.220E-01    0.188E-01
DAV:  18    -0.441085547326E+03   -0.86661E-04   -0.12773E-03  5312   0.155E-01    0.262E-01
DAV:  19    -0.441085517806E+03    0.29519E-04   -0.12641E-03  5056   0.133E-01    0.239E-01
DAV:  20    -0.441085417627E+03    0.10018E-03   -0.72092E-04  5056   0.997E-02    0.143E-01
DAV:  21    -0.441085399441E+03    0.18186E-04   -0.23664E-04  6272   0.587E-02    0.113E-01
DAV:  22    -0.441085425801E+03   -0.26361E-04   -0.29826E-04  5056   0.677E-02    0.123E-01
DAV:  23    -0.441085402134E+03    0.23668E-04   -0.30730E-04  4736   0.672E-02    0.811E-02
DAV:  24    -0.441085391203E+03    0.10930E-04   -0.82522E-05  4864   0.373E-02    0.528E-02
DAV:  25    -0.441085401381E+03   -0.10177E-04   -0.53639E-05  4480   0.333E-02    0.588E-02
DAV:  26    -0.441085396333E+03    0.50482E-05   -0.47254E-05  4800   0.305E-02    0.179E-02
DAV:  27    -0.441085396350E+03   -0.17448E-07   -0.77246E-06  2944   0.124E-02
  24 F= -.44107132E+03 E0= -.44093561E+03  d E =-.196025E+00
       N       E                     dE             d eps       ncg     rms          rms(c)
DAV:   1    -0.440763393570E+03    0.32200E+00   -0.25970E+02  4096   0.215E+01    0.332E+00
DAV:   2    -0.452754343324E+03   -0.11991E+02   -0.39900E+01  6272   0.223E+01    0.604E+01
DAV:   3    -0.441419463782E+03    0.11335E+02   -0.33680E+01  4864   0.203E+01    0.104E+01
DAV:   4    -0.441583194255E+03   -0.16373E+00   -0.69640E+00  5248   0.894E+00    0.148E+01
DAV:   5    -0.441266098824E+03    0.31710E+00   -0.45934E+00  5952   0.698E+00    0.853E+00
DAV:   6    -0.441241574641E+03    0.24524E-01   -0.25844E+00  5184   0.584E+00    0.854E+00
DAV:   7    -0.441096499280E+03    0.14508E+00   -0.17325E+00  4992   0.515E+00    0.563E+00
DAV:   8    -0.441093964475E+03    0.25348E-02   -0.93129E-01  6208   0.340E+00    0.545E+00
DAV:   9    -0.441243750353E+03   -0.14979E+00   -0.14824E+00  4992   0.419E+00    0.928E+00
DAV:  10    -0.441112113191E+03    0.13164E+00   -0.18222E+00  4672   0.422E+00    0.572E+00
DAV:  11    -0.441026826865E+03    0.85286E-01   -0.54295E-01  5376   0.273E+00    0.211E+00
DAV:  12    -0.441044575784E+03   -0.17749E-01   -0.30538E-01  5440   0.204E+00    0.327E+00
DAV:  13    -0.441043397170E+03    0.11786E-02   -0.32537E-01  4672   0.201E+00    0.314E+00
DAV:  14    -0.441020245226E+03    0.23152E-01   -0.13621E-01  4736   0.149E+00    0.173E+00
DAV:  15    -0.441016410604E+03    0.38346E-02   -0.28380E-02  5568   0.651E-01    0.129E+00
DAV:  16    -0.441015754732E+03    0.65587E-03   -0.19205E-02  5312   0.560E-01    0.105E+00
DAV:  17    -0.441014317501E+03    0.14372E-02   -0.25074E-02  5184   0.555E-01    0.720E-01
DAV:  18    -0.441013538716E+03    0.77878E-03   -0.87901E-03  4928   0.389E-01    0.611E-01
DAV:  19    -0.441013605164E+03   -0.66448E-04   -0.47110E-03  6272   0.274E-01    0.597E-01
DAV:  20    -0.441013047326E+03    0.55784E-03   -0.29827E-03  4864   0.218E-01    0.371E-01
DAV:  21    -0.441012893395E+03    0.15393E-03   -0.10977E-03  4864   0.129E-01    0.271E-01
DAV:  22    -0.441012965619E+03   -0.72223E-04   -0.12167E-03  4992   0.125E-01    0.290E-01
DAV:  23    -0.441012880012E+03    0.85607E-04   -0.16256E-03  4992   0.138E-01    0.190E-01
DAV:  24    -0.441012790047E+03    0.89965E-04   -0.51272E-04  4800   0.958E-02    0.921E-02
DAV:  25    -0.441012817768E+03   -0.27721E-04   -0.22089E-04  5248   0.654E-02    0.116E-01
DAV:  26    -0.441012805178E+03    0.12590E-04   -0.21663E-04  4480   0.618E-02    0.643E-02
DAV:  27    -0.441012796275E+03    0.89028E-05   -0.63672E-05  4800   0.353E-02    0.224E-02
DAV:  28    -0.441012805716E+03   -0.94406E-05   -0.24350E-05  4352   0.224E-02    0.361E-02
DAV:  29    -0.441012811617E+03   -0.59010E-05   -0.20215E-05  4288   0.205E-02    0.186E-02
DAV:  30    -0.441012813701E+03   -0.20839E-05   -0.71501E-06  3072   0.123E-02    0.115E-02
DAV:  31    -0.441012827185E+03   -0.13484E-04   -0.60972E-06  3520   0.114E-02    0.205E-02
DAV:  32    -0.441012831820E+03   -0.46357E-05   -0.52806E-06  3136   0.114E-02    0.114E-02
DAV:  33    -0.441012837121E+03   -0.53002E-05   -0.29826E-06  2880   0.768E-03    0.133E-02
[...]
DAV:  15    -0.441584852026E+03    0.10256E-05   -0.80968E-06  2304   0.113E-02    0.636E-03
DAV:  16    -0.441584852691E+03   -0.66462E-06   -0.15429E-06  2432   0.516E-03
  80 F= -.44157433E+03 E0= -.44143398E+03  d E =-.359782E-03
       N       E                     dE             d eps       ncg     rms          rms(c)
DAV:   1    -0.441584896119E+03   -0.44093E-04   -0.37190E-02  4096   0.265E-01    0.404E-02
DAV:   2    -0.441586962697E+03   -0.20666E-02   -0.11122E-02  6272   0.287E-01    0.100E+00
DAV:   3    -0.441585143096E+03    0.18196E-02   -0.13382E-02  4928   0.286E-01    0.321E-01
DAV:   4    -0.441584920843E+03    0.22225E-03   -0.14891E-03  5312   0.117E-01    0.684E-02
DAV:   5    -0.441584986528E+03   -0.65686E-04   -0.45231E-04  5056   0.881E-02    0.148E-01
DAV:   6    -0.441584941521E+03    0.45008E-04   -0.47661E-04  4736   0.847E-02    0.992E-02
DAV:   7    -0.441584925743E+03    0.15778E-04   -0.21072E-04  4608   0.597E-02    0.571E-02
DAV:   8    -0.441584934130E+03   -0.83876E-05   -0.15065E-04  5184   0.459E-02    0.758E-02
DAV:   9    -0.441584950060E+03   -0.15929E-04   -0.23805E-04  4736   0.527E-02    0.104E-01
DAV:  10    -0.441584932734E+03    0.17325E-04   -0.20328E-04  4736   0.495E-02    0.681E-02
DAV:  11    -0.441584922842E+03    0.98926E-05   -0.69768E-05  4608   0.318E-02    0.283E-02
DAV:  12    -0.441584922543E+03    0.29925E-06   -0.17172E-05  3776   0.172E-02    0.210E-02
DAV:  13    -0.441584925016E+03   -0.24733E-05   -0.20398E-05  2560   0.175E-02    0.331E-02
DAV:  14    -0.441584922493E+03    0.25224E-05   -0.19200E-05  2624   0.164E-02    0.168E-02
DAV:  15    -0.441584922054E+03    0.43990E-06   -0.51092E-06  2368   0.841E-03
  81 F= -.44157440E+03 E0= -.44143405E+03  d E =-.670460E-04
       N       E                     dE             d eps       ncg     rms          rms(c)
DAV:   1    -0.441584922694E+03   -0.20058E-06   -0.51564E-04  4416   0.316E-02    0.840E-03
DAV:   2    -0.441584998488E+03   -0.75794E-04   -0.36751E-04  5184   0.607E-02    0.182E-01
DAV:   3    -0.441584943806E+03    0.54682E-04   -0.61995E-04  4864   0.628E-02    0.110E-01
DAV:   4    -0.441584922422E+03    0.21384E-04   -0.14999E-04  4608   0.348E-02    0.198E-02
DAV:   5    -0.441584923606E+03   -0.11837E-05   -0.14678E-05  3008   0.147E-02    0.174E-02
DAV:   6    -0.441584925030E+03   -0.14243E-05   -0.14842E-05  2368   0.152E-02    0.269E-02
DAV:   7    -0.441584923058E+03    0.19723E-05   -0.11632E-05  2432   0.138E-02    0.126E-02
DAV:   8    -0.441584923118E+03   -0.59998E-07   -0.28758E-06  2432   0.661E-03
  82 F= -.44157441E+03 E0= -.44143406E+03  d E =-.770072E-04
       N       E                     dE             d eps       ncg     rms          rms(c)
DAV:   1    -0.441584974652E+03   -0.51594E-04   -0.20732E-02  4096   0.203E-01    0.280E-02
DAV:   2    -0.441586216151E+03   -0.12415E-02   -0.65822E-03  6080   0.222E-01    0.781E-01
DAV:   3    -0.441585118215E+03    0.10979E-02   -0.80362E-03  4864   0.222E-01    0.248E-01
DAV:   4    -0.441584988126E+03    0.13009E-03   -0.86958E-04  5056   0.906E-02    0.557E-02
DAV:   5    -0.441585013235E+03   -0.25109E-04   -0.21846E-04  4800   0.586E-02    0.958E-02
DAV:   6    -0.441585015012E+03   -0.17780E-05   -0.28176E-04  4736   0.597E-02    0.105E-01
DAV:   7    -0.441584997126E+03    0.17887E-04   -0.21534E-04  4544   0.485E-02    0.602E-02
DAV:   8    -0.441584990876E+03    0.62500E-05   -0.68851E-05  4800   0.320E-02    0.278E-02
DAV:   9    -0.441584997699E+03   -0.68235E-05   -0.44644E-05  4544   0.304E-02    0.455E-02
DAV:  10    -0.441584996419E+03    0.12801E-05   -0.57488E-05  4416   0.312E-02    0.421E-02
DAV:  11    -0.441584992242E+03    0.41773E-05   -0.27071E-05  3648   0.226E-02    0.225E-02
DAV:  12    -0.441584992362E+03   -0.12011E-06   -0.87656E-06  2624   0.118E-02
  83 F= -.44157449E+03 E0= -.44143414E+03  d E =-.793228E-04
       N       E                     dE             d eps       ncg     rms          rms(c)
DAV:   1    -0.441585005031E+03   -0.12789E-04   -0.14508E-03  4160   0.550E-02    0.255E-02
DAV:   2    -0.441585894735E+03   -0.88970E-03   -0.43078E-03  4992   0.203E-01    0.630E-01
DAV:   3    -0.441585252346E+03    0.64239E-03   -0.70401E-03  4928   0.210E-01    0.353E-01
DAV:   4    -0.441585008742E+03    0.24360E-03   -0.14885E-03  4736   0.111E-01    0.626E-02
DAV:   5    -0.441585009325E+03   -0.58301E-06   -0.13245E-04  5568   0.456E-02    0.491E-02
DAV:   6    -0.441585022914E+03   -0.13589E-04   -0.13807E-04  4544   0.446E-02    0.819E-02
DAV:   7    -0.441585007159E+03    0.15755E-04   -0.11727E-04  4352   0.393E-02    0.409E-02
DAV:   8    -0.441585004771E+03    0.23888E-05   -0.28966E-05  3392   0.211E-02    0.206E-02
DAV:   9    -0.441585004741E+03    0.29817E-07   -0.91958E-06  2688   0.108E-02
  84 F= -.44157450E+03 E0= -.44143415E+03  d E =-.924090E-04
       N       E                     dE             d eps       ncg     rms          rms(c)
DAV:   1    -0.441585033132E+03   -0.28361E-04   -0.30356E-03  4224   0.771E-02    0.202E-02
DAV:   2    -0.441585303811E+03   -0.27068E-03   -0.12324E-03  4928   0.119E-01    0.337E-01
DAV:   3    -0.441585119437E+03    0.18437E-03   -0.20904E-03  4992   0.124E-01    0.220E-01
DAV:   4    -0.441585042114E+03    0.77323E-04   -0.71607E-04  4864   0.706E-02    0.708E-02
DAV:   5    -0.441585035889E+03    0.62245E-05   -0.99918E-05  4672   0.354E-02    0.401E-02
DAV:   6    -0.441585044841E+03   -0.89520E-05   -0.88844E-05  5312   0.347E-02    0.666E-02
DAV:   7    -0.441585040061E+03    0.47800E-05   -0.10067E-04  4608   0.360E-02    0.501E-02
DAV:   8    -0.441585034546E+03    0.55151E-05   -0.49206E-05  4544   0.287E-02    0.279E-02
DAV:   9    -0.441585033862E+03    0.68420E-06   -0.19557E-05  3264   0.175E-02    0.180E-02
DAV:  10    -0.441585035806E+03   -0.19444E-05   -0.16219E-05  2496   0.162E-02    0.273E-02
DAV:  11    -0.441585034146E+03    0.16601E-05   -0.13189E-05  2304   0.149E-02    0.163E-02
DAV:  12    -0.441585033925E+03    0.22119E-06   -0.49600E-06  2304   0.889E-03
  85 F= -.44157454E+03 E0= -.44143420E+03  d E =-.429137E-04
       N       E                     dE             d eps       ncg     rms          rms(c)
DAV:   1    -0.441585034868E+03   -0.72234E-06   -0.15093E-05  5440   0.814E-03    0.999E-03
DAV:   2    -0.441585109348E+03   -0.74480E-04   -0.36158E-04  4928   0.666E-02    0.168E-01
DAV:   3    -0.441585054751E+03    0.54597E-04   -0.58228E-04  4864   0.678E-02    0.117E-01
DAV:   4    -0.441585036214E+03    0.18536E-04   -0.18138E-04  4288   0.344E-02    0.317E-02
DAV:   5    -0.441585034403E+03    0.18114E-05   -0.18900E-05  2624   0.152E-02    0.126E-02
DAV:   6    -0.441585035857E+03   -0.14546E-05   -0.10510E-05  2688   0.116E-02    0.224E-02
DAV:   7    -0.441585035537E+03    0.32075E-06   -0.12649E-05  2368   0.116E-02    0.208E-02
DAV:   8    -0.441585034521E+03    0.10151E-05   -0.60042E-06  2304   0.882E-03    0.659E-03
DAV:   9    -0.441585034769E+03   -0.24735E-06   -0.79491E-07  2432   0.357E-03
  86 F= -.44157454E+03 E0= -.44143420E+03  d E =-.462750E-04
       N       E                     dE             d eps       ncg     rms          rms(c)
DAV:   1    -0.441585055649E+03   -0.21127E-04   -0.35819E-03  4224   0.810E-02    0.131E-02
DAV:   2    -0.441585119311E+03   -0.63663E-04   -0.31741E-04  5632   0.631E-02    0.158E-01
DAV:   3    -0.441585093470E+03    0.25842E-04   -0.67355E-04  4672   0.672E-02    0.143E-01
DAV:   4    -0.441585057057E+03    0.36413E-04   -0.25076E-04  4672   0.459E-02    0.272E-02
DAV:   5    -0.441585059426E+03   -0.23692E-05   -0.37202E-05  4672   0.219E-02    0.340E-02
DAV:   6    -0.441585061912E+03   -0.24856E-05   -0.43037E-05  4160   0.252E-02    0.423E-02
DAV:   7    -0.441585057315E+03    0.45966E-05   -0.30560E-05  3904   0.225E-02    0.237E-02
DAV:   8    -0.441585057875E+03   -0.56010E-06   -0.15810E-05  2432   0.136E-02    0.190E-02
DAV:   9    -0.441585058882E+03   -0.10068E-05   -0.14492E-05  2688   0.142E-02    0.225E-02
DAV:  10    -0.441585059470E+03   -0.58814E-06   -0.18036E-05  2432   0.155E-02    0.273E-02
DAV:  11    -0.441585057655E+03    0.18151E-05   -0.13012E-05  2304   0.130E-02    0.122E-02
DAV:  12    -0.441585057792E+03   -0.13657E-06   -0.27284E-06  2304   0.710E-03
  87 F= -.44157456E+03 E0= -.44143422E+03  d E =-.187490E-04
       N       E                     dE             d eps       ncg     rms          rms(c)
DAV:   1    -0.441585064114E+03   -0.64592E-05   -0.44286E-03  4224   0.901E-02    0.151E-02
DAV:   2    -0.441585246007E+03   -0.18189E-03   -0.93717E-04  5888   0.904E-02    0.293E-01
DAV:   3    -0.441585104124E+03    0.14188E-03   -0.14073E-03  4672   0.931E-02    0.136E-01
DAV:   4    -0.441585065227E+03    0.38898E-04   -0.24283E-04  4864   0.510E-02    0.283E-02
DAV:   5    -0.441585070566E+03   -0.53394E-05   -0.50280E-05  5184   0.278E-02    0.422E-02
DAV:   6    -0.441585073374E+03   -0.28075E-05   -0.68286E-05  4416   0.302E-02    0.539E-02
DAV:   7    -0.441585067390E+03    0.59836E-05   -0.58618E-05  4352   0.260E-02    0.296E-02
DAV:   8    -0.441585066980E+03    0.41041E-06   -0.19701E-05  2688   0.166E-02    0.202E-02
DAV:   9    -0.441585067669E+03   -0.68925E-06   -0.14210E-05  2688   0.146E-02    0.218E-02
DAV:  10    -0.441585069408E+03   -0.17388E-05   -0.19651E-05  2560   0.172E-02    0.303E-02
DAV:  11    -0.441585066754E+03    0.26542E-05   -0.16151E-05  2432   0.159E-02    0.152E-02
DAV:  12    -0.441585066847E+03   -0.93729E-07   -0.39543E-06  2304   0.764E-03
  88 F= -.44157456E+03 E0= -.44143422E+03  d E =-.197820E-04
       N       E                     dE             d eps       ncg     rms          rms(c)
DAV:   1    -0.441585078145E+03   -0.11392E-04   -0.12869E-03  4224   0.499E-02    0.946E-03
DAV:   2    -0.441585218946E+03   -0.14080E-03   -0.73199E-04  5120   0.744E-02    0.264E-01
DAV:   3    -0.441585091918E+03    0.12703E-03   -0.95041E-04  4736   0.753E-02    0.840E-02
DAV:   4    -0.441585077285E+03    0.14633E-04   -0.98828E-05  4544   0.330E-02    0.205E-02
DAV:   5    -0.441585080618E+03   -0.33330E-05   -0.24488E-05  3264   0.188E-02    0.306E-02
DAV:   6    -0.441585081314E+03   -0.69600E-06   -0.27959E-05  2624   0.200E-02    0.336E-02
DAV:   7    -0.441585077906E+03    0.34083E-05   -0.16997E-05  2304   0.162E-02    0.105E-02
DAV:   8    -0.441585078907E+03   -0.10013E-05   -0.36665E-06  2304   0.798E-03    0.103E-02
DAV:   9    -0.441585079237E+03   -0.32983E-06   -0.38943E-06  2432   0.806E-03
  89 F= -.44157458E+03 E0= -.44143423E+03  d E =-.125227E-04
       N       E                     dE             d eps       ncg     rms          rms(c)
DAV:   1    -0.441585094332E+03   -0.15424E-04   -0.11606E-02  4096   0.149E-01    0.309E-02
DAV:   2    -0.441586193744E+03   -0.10994E-02   -0.55700E-03  4864   0.224E-01    0.715E-01
DAV:   3    -0.441585358997E+03    0.83475E-03   -0.84480E-03  5056   0.231E-01    0.360E-01
DAV:   4    -0.441585116032E+03    0.24296E-03   -0.17494E-03  4992   0.117E-01    0.998E-02
DAV:   5    -0.441585106864E+03    0.91681E-05   -0.24944E-04  5632   0.571E-02    0.655E-02
DAV:   6    -0.441585134463E+03   -0.27599E-04   -0.23319E-04  5248   0.594E-02    0.111E-01
DAV:   7    -0.441585110110E+03    0.24353E-04   -0.25264E-04  4608   0.572E-02    0.708E-02
DAV:   8    -0.441585099037E+03    0.11072E-04   -0.88510E-05  4480   0.370E-02    0.284E-02
DAV:   9    -0.441585100797E+03   -0.17596E-05   -0.26754E-05  4352   0.220E-02    0.248E-02
DAV:  10    -0.441585106697E+03   -0.58998E-05   -0.40701E-05  4544   0.257E-02    0.472E-02
DAV:  11    -0.441585102877E+03    0.38201E-05   -0.40417E-05  4224   0.253E-02    0.306E-02
DAV:  12    -0.441585100930E+03    0.19467E-05   -0.14348E-05  2432   0.163E-02    0.136E-02
DAV:  13    -0.441585101345E+03   -0.41528E-06   -0.48391E-06  2560   0.883E-03
  90 F= -.44157460E+03 E0= -.44143425E+03  d E =-.312005E-04
       N       E                     dE             d eps       ncg     rms          rms(c)
DAV:   1    -0.441585110397E+03   -0.94668E-05   -0.43706E-04  4224   0.293E-02    0.114E-02
DAV:   2    -0.441585197941E+03   -0.87544E-04   -0.39041E-04  4608   0.734E-02    0.181E-01
DAV:   3    -0.441585139198E+03    0.58742E-04   -0.67417E-04  4736   0.750E-02    0.136E-01
DAV:   4    -0.441585112393E+03    0.26805E-04   -0.24252E-04  4416   0.402E-02    0.347E-02
DAV:   5    -0.441585110353E+03    0.20402E-05   -0.24809E-05  3264   0.176E-02    0.147E-02
DAV:   6    -0.441585112299E+03   -0.19460E-05   -0.13676E-05  2496   0.148E-02    0.241E-02
DAV:   7    -0.441585110784E+03    0.15156E-05   -0.11175E-05  2304   0.136E-02    0.136E-02
DAV:   8    -0.441585110671E+03    0.11236E-06   -0.34264E-06  2688   0.774E-03
  91 F= -.44157461E+03 E0= -.44143427E+03  d E =-.188074E-04
       N       E                     dE             d eps       ncg     rms          rms(c)
DAV:   1    -0.441585117639E+03   -0.68557E-05   -0.12313E-03  4224   0.477E-02    0.129E-02
DAV:   2    -0.441585228562E+03   -0.11092E-03   -0.53297E-04  5952   0.775E-02    0.210E-01
DAV:   3    -0.441585113918E+03    0.11464E-03   -0.56692E-04  4800   0.741E-02    0.453E-02
DAV:   4    -0.441585122661E+03   -0.87429E-05   -0.76470E-05  4352   0.254E-02    0.525E-02
DAV:   5    -0.441585119814E+03    0.28473E-05   -0.56173E-05  2944   0.198E-02    0.296E-02
DAV:   6    -0.441585121570E+03   -0.17559E-05   -0.29985E-05  2624   0.186E-02    0.347E-02
DAV:   7    -0.441585119539E+03    0.20311E-05   -0.26621E-05  2624   0.184E-02    0.242E-02
DAV:   8    -0.441585118688E+03    0.85084E-06   -0.11284E-05  2432   0.146E-02    0.128E-02
DAV:   9    -0.441585119179E+03   -0.49130E-06   -0.66971E-06  2304   0.106E-02
  92 F= -.44157463E+03 E0= -.44143428E+03  d E =-.372635E-04
       N       E                     dE             d eps       ncg     rms          rms(c)
DAV:   1    -0.441585126811E+03   -0.81227E-05   -0.70796E-04  4096   0.383E-02    0.206E-02
DAV:   2    -0.441585534881E+03   -0.40807E-03   -0.18806E-03  4928   0.147E-01    0.405E-01
DAV:   3    -0.441585253307E+03    0.28157E-03   -0.31035E-03  5056   0.152E-01    0.271E-01
DAV:   4    -0.441585130943E+03    0.12236E-03   -0.90713E-04  4864   0.779E-02    0.517E-02
DAV:   5    -0.441585127882E+03    0.30607E-05   -0.71653E-05  4800   0.351E-02    0.326E-02
DAV:   6    -0.441585132144E+03   -0.42617E-05   -0.58036E-05  4672   0.298E-02    0.473E-02
DAV:   7    -0.441585129242E+03    0.29015E-05   -0.54834E-05  4480   0.275E-02    0.380E-02
DAV:   8    -0.441585126174E+03    0.30684E-05   -0.25065E-05  2560   0.196E-02    0.173E-02
DAV:   9    -0.441585126209E+03   -0.34823E-07   -0.56847E-06  2304   0.917E-03
  93 F= -.44157464E+03 E0= -.44143430E+03  d E =-.999952E-05
       N       E                     dE             d eps       ncg     rms          rms(c)
DAV:   1    -0.441585130132E+03   -0.39586E-05   -0.14200E-03  4480   0.524E-02    0.164E-02
DAV:   2    -0.441585351165E+03   -0.22103E-03   -0.10310E-03  4864   0.105E-01    0.309E-01
DAV:   3    -0.441585132199E+03    0.21897E-03   -0.11486E-03  4864   0.101E-01    0.718E-02
DAV:   4    -0.441585138702E+03   -0.65029E-05   -0.17094E-04  4736   0.341E-02    0.717E-02
DAV:   5    -0.441585131226E+03    0.74758E-05   -0.85346E-05  4608   0.269E-02    0.279E-02
DAV:   6    -0.441585134871E+03   -0.36449E-05   -0.36712E-05  3968   0.237E-02    0.406E-02
DAV:   7    -0.441585132719E+03    0.21516E-05   -0.40230E-05  3520   0.235E-02    0.343E-02
DAV:   8    -0.441585130160E+03    0.25597E-05   -0.20839E-05  2752   0.178E-02    0.155E-02
DAV:   9    -0.441585130591E+03   -0.43110E-06   -0.64885E-06  2304   0.112E-02
  94 F= -.44157465E+03 E0= -.44143429E+03  d E =-.166560E-04
       N       E                     dE             d eps       ncg     rms          rms(c)
DAV:   1    -0.441585137105E+03   -0.69455E-05   -0.41334E-04  4096   0.287E-02    0.203E-02
DAV:   2    -0.441585465157E+03   -0.32805E-03   -0.13172E-03  4928   0.139E-01    0.347E-01
DAV:   3    -0.441585138786E+03    0.32637E-03   -0.14711E-03  4864   0.132E-01    0.841E-02
DAV:   4    -0.441585150608E+03   -0.11822E-04   -0.23927E-04  4864   0.403E-02    0.886E-02
DAV:   5    -0.441585137103E+03    0.13505E-04   -0.11881E-04  4608   0.313E-02    0.281E-02
DAV:   6    -0.441585137708E+03   -0.60479E-06   -0.27299E-05  3392   0.187E-02    0.289E-02
DAV:   7    -0.441585139480E+03   -0.17723E-05   -0.30499E-05  2816   0.194E-02    0.369E-02
DAV:   8    -0.441585137170E+03    0.23100E-05   -0.26155E-05  2688   0.176E-02    0.225E-02
DAV:   9    -0.441585136112E+03    0.10581E-05   -0.86985E-06  2304   0.112E-02    0.960E-03
DAV:  10    -0.441585136334E+03   -0.22196E-06   -0.22083E-06  2304   0.590E-03
  95 F= -.44157466E+03 E0= -.44143430E+03  d E =-.594221E-05
       N       E                     dE             d eps       ncg     rms          rms(c)
DAV:   1    -0.441585147437E+03   -0.11325E-04   -0.36498E-03  4096   0.784E-02    0.157E-02
DAV:   2    -0.441585228685E+03   -0.81249E-04   -0.33836E-04  5504   0.753E-02    0.164E-01
DAV:   3    -0.441585144219E+03    0.84466E-04   -0.33901E-04  4928   0.712E-02    0.410E-02
DAV:   4    -0.441585150769E+03   -0.65502E-05   -0.65140E-05  4608   0.265E-02    0.446E-02
DAV:   5    -0.441585154892E+03   -0.41227E-05   -0.91877E-05  3072   0.244E-02    0.617E-02
DAV:   6    -0.441585156802E+03   -0.19103E-05   -0.96793E-05  4544   0.299E-02    0.575E-02
DAV:   7    -0.441585152513E+03    0.42890E-05   -0.71848E-05  4160   0.276E-02    0.440E-02
DAV:   8    -0.441585148802E+03    0.37114E-05   -0.30851E-05  2752   0.197E-02    0.179E-02
DAV:   9    -0.441585150864E+03   -0.20619E-05   -0.17367E-05  2432   0.156E-02    0.256E-02
DAV:  10    -0.441585151154E+03   -0.28983E-06   -0.19228E-05  2368   0.170E-02    0.259E-02
DAV:  11    -0.441585149379E+03    0.17746E-05   -0.11447E-05  2304   0.139E-02    0.129E-02
DAV:  12    -0.441585149403E+03   -0.24433E-07   -0.33339E-06  2304   0.742E-03
  96 F= -.44157467E+03 E0= -.44143431E+03  d E =-.196146E-04
       N       E                     dE             d eps       ncg     rms          rms(c)
DAV:   1    -0.441585153573E+03   -0.41936E-05   -0.89455E-04  4288   0.380E-02    0.823E-03
DAV:   2    -0.441585164702E+03   -0.11129E-04   -0.59457E-05  5632   0.278E-02    0.595E-02
DAV:   3    -0.441585154987E+03    0.97151E-05   -0.63074E-05  4352   0.272E-02    0.325E-02
DAV:   4    -0.441585156121E+03   -0.11345E-05   -0.34419E-05  2304   0.152E-02    0.326E-02
DAV:   5    -0.441585155686E+03    0.43526E-06   -0.25114E-05  2304   0.150E-02    0.239E-02
DAV:   6    -0.441585158206E+03   -0.25207E-05   -0.28822E-05  2688   0.183E-02    0.388E-02
DAV:   7    -0.441585155244E+03    0.29627E-05   -0.27222E-05  2688   0.172E-02    0.218E-02
DAV:   8    -0.441585154645E+03    0.59894E-06   -0.88135E-06  2304   0.114E-02
  97 F= -.44157468E+03 E0= -.44143432E+03  d E =-.115230E-04
       N       E                     dE             d eps       ncg     rms          rms(c)
DAV:   1    -0.441585155694E+03   -0.45021E-06   -0.10132E-05  4416   0.113E-02    0.154E-02
DAV:   2    -0.441585314651E+03   -0.15896E-03   -0.61185E-04  4992   0.102E-01    0.236E-01
DAV:   3    -0.441585187579E+03    0.12707E-03   -0.96881E-04  4864   0.992E-02    0.147E-01
DAV:   4    -0.441585160265E+03    0.27314E-04   -0.34192E-04  4608   0.472E-02    0.579E-02
DAV:   5    -0.441585154730E+03    0.55349E-05   -0.52472E-05  4160   0.247E-02    0.200E-02
DAV:   6    -0.441585155888E+03   -0.11576E-05   -0.14556E-05  2880   0.153E-02    0.206E-02
DAV:   7    -0.441585156759E+03   -0.87115E-06   -0.17119E-05  2432   0.147E-02    0.267E-02
DAV:   8    -0.441585155714E+03    0.10446E-05   -0.15329E-05  2368   0.133E-02    0.195E-02
DAV:   9    -0.441585154758E+03    0.95619E-06   -0.50474E-06  2560   0.842E-03
  98 F= -.44157468E+03 E0= -.44143433E+03  d E =-.148898E-04
